********************************************************************************
*                       GENERAL UTILITY LATTICE PROGRAM                        *
*                                 Julian Gale                                  *
*                       Curtin Institute for Computation                       *
*                    School of Molecular and Life Sciences                     *
*                    Curtin University, Western Australia                      *
********************************************************************************
* Version = 5.2.0 * Last modified =  18th May 2020                             *
********************************************************************************


!!!!!!!!!!!!!!!!!!!!!!!!!!!!!!!!!!!!!!!!!!!!!!!!!!!!!!!!!!!!!!!!!!!!!!!!!!!!!!!!
!! WARNING : bond order parameters are not specified for all pairs in ReaxFF
!!!!!!!!!!!!!!!!!!!!!!!!!!!!!!!!!!!!!!!!!!!!!!!!!!!!!!!!!!!!!!!!!!!!!!!!!!!!!!!!

*  single       - perform a single point run                                   *
*  conv         - constant volume calculation                                  *
*  property     - calculate properties for final geometry                      *
********************************************************************************

  Job Started  at 22:36.12 28th May        2020                               

  Number of CPUs =     1

  Host name      = hpc0248                                 


  Total number of configurations input =      8

********************************************************************************
*  Input for Configuration =   1                                               *
********************************************************************************

  Formula = S96Zr48O144                                                 

  Number of irreducible atoms/shells =     288


  Total number atoms/shells =     288

  Dimensionality = 3               :  Bulk   



  Cartesian lattice vectors (Angstroms) :

       13.276200    0.000000    0.000000
        0.000000   15.330000    0.000000
        0.000000    0.000000   27.849150

  Cell parameters (Angstroms/Degrees):

  a =      13.2762    alpha =  90.0000
  b =      15.3300    beta  =  90.0000
  c =      27.8492    gamma =  90.0000

  Initial cell volume =        5667.974644 Angs**3

  Temperature of configuration =   0.00     K 

  Pressure of configuration =         0.000 GPa 

  Fractional coordinates of asymmetric unit :

--------------------------------------------------------------------------------
   No.  Atomic       x           y          z         Charge      Occupancy
        Label      (Frac)      (Frac)     (Frac)        (e)         (Frac)  
--------------------------------------------------------------------------------
      1 S     c    0.097051    0.157830    0.382150     0.00000    1.000000    
      2 S     c    0.598616    0.153017    0.379693     0.00000    1.000000    
      3 S     c    0.100414    0.396716    0.378133     0.00000    1.000000    
      4 S     c    0.608405    0.407787    0.378251     0.00000    1.000000    
      5 S     c    0.098350    0.658466    0.389540     0.00000    1.000000    
      6 S     c    0.603301    0.666591    0.385685     0.00000    1.000000    
      7 S     c    0.110050    0.907618    0.400345     0.00000    1.000000    
      8 S     c    0.592755    0.902346    0.371198     0.00000    1.000000    
      9 S     c    0.116399    0.080783    0.554238     0.00000    1.000000    
     10 S     c    0.679295    0.125052    0.593287     0.00000    1.000000    
     11 S     c    0.156528    0.347749    0.613273     0.00000    1.000000    
     12 S     c    0.678916    0.329828    0.575482     0.00000    1.000000    
     13 S     c    0.140591    0.562836    0.606856     0.00000    1.000000    
     14 S     c    0.630806    0.553237    0.600074     0.00000    1.000000    
     15 S     c    0.982145    0.980276    0.638530     0.00000    1.000000    
     16 S     c    0.498808    0.837245    0.584233     0.00000    1.000000    
     17 S     c    0.100070    0.153142    0.179697     0.00000    1.000000    
     18 S     c    0.586541    0.134584    0.179161     0.00000    1.000000    
     19 S     c    0.067873    0.403647    0.173899     0.00000    1.000000    
     20 S     c    0.594890    0.415492    0.164711     0.00000    1.000000    
     21 S     c    0.024893    0.688154    0.230778     0.00000    1.000000    
     22 S     c    0.602668    0.653137    0.163511     0.00000    1.000000    
     23 S     c    0.083091    0.913478    0.191427     0.00000    1.000000    
     24 S     c    0.564740    0.903941    0.156830     0.00000    1.000000    
     25 S     c    0.329755    0.276322    0.379503     0.00000    1.000000    
     26 S     c    0.845621    0.287410    0.371704     0.00000    1.000000    
     27 S     c    0.334991    0.506649    0.384946     0.00000    1.000000    
     28 S     c    0.852396    0.528386    0.376447     0.00000    1.000000    
     29 S     c    0.351199    0.780196    0.391859     0.00000    1.000000    
     30 S     c    0.848356    0.784284    0.379605     0.00000    1.000000    
     31 S     c    0.336614    0.032973    0.392520     0.00000    1.000000    
     32 S     c    0.830896    0.041942    0.376666     0.00000    1.000000    
     33 S     c    0.430976    0.209265    0.594410     0.00000    1.000000    
     34 S     c    0.858847    0.244711    0.592459     0.00000    1.000000    
     35 S     c    0.417606    0.457157    0.600327     0.00000    1.000000    
     36 S     c    0.885512    0.447579    0.590300     0.00000    1.000000    
     37 S     c    0.418401    0.638588    0.614178     0.00000    1.000000    
     38 S     c    0.867983    0.726005    0.610698     0.00000    1.000000    
     39 S     c    0.400517    0.974929    0.653997     0.00000    1.000000    
     40 S     c    0.931117    0.989678    0.496093     0.00000    1.000000    
     41 S     c    0.346300    0.303361    0.162046     0.00000    1.000000    
     42 S     c    0.821569    0.285614    0.177536     0.00000    1.000000    
     43 S     c    0.318754    0.532230    0.165108     0.00000    1.000000    
     44 S     c    0.834197    0.522880    0.183733     0.00000    1.000000    
     45 S     c    0.360243    0.792757    0.170362     0.00000    1.000000    
     46 S     c    0.832447    0.776631    0.180973     0.00000    1.000000    
     47 S     c    0.328596    0.039017    0.165718     0.00000    1.000000    
     48 S     c    0.826242    0.041053    0.182248     0.00000    1.000000    
     49 S     c    0.184549    0.280695    0.275691     0.00000    1.000000    
     50 S     c    0.668995    0.286545    0.278905     0.00000    1.000000    
     51 S     c    0.181578    0.536314    0.275533     0.00000    1.000000    
     52 S     c    0.665504    0.540569    0.285911     0.00000    1.000000    
     53 S     c    0.173908    0.769022    0.293251     0.00000    1.000000    
     54 S     c    0.681855    0.783773    0.283505     0.00000    1.000000    
     55 S     c    0.187253    0.022787    0.282604     0.00000    1.000000    
     56 S     c    0.676425    0.034932    0.275174     0.00000    1.000000    
     57 S     c    0.227272    0.230825    0.509111     0.00000    1.000000    
     58 S     c    0.732457    0.209909    0.470380     0.00000    1.000000    
     59 S     c    0.245588    0.456846    0.498461     0.00000    1.000000    
     60 S     c    0.733864    0.491717    0.487665     0.00000    1.000000    
     61 S     c    0.229227    0.699864    0.513499     0.00000    1.000000    
     62 S     c    0.722934    0.883595    0.466241     0.00000    1.000000    
     63 S     c    0.248972    0.082306    0.452964     0.00000    1.000000    
     64 S     c    0.710959    0.014359    0.463567     0.00000    1.000000    
     65 S     c    0.158850    0.265690    0.078033     0.00000    1.000000    
     66 S     c    0.676315    0.281255    0.074877     0.00000    1.000000    
     67 S     c    0.012486    0.470136    0.062414     0.00000    1.000000    
     68 S     c    0.643235    0.533960    0.057052     0.00000    1.000000    
     69 S     c    0.356730    0.847742    0.038339     0.00000    1.000000    
     70 S     c    0.698011    0.760611    0.077968     0.00000    1.000000    
     71 S     c    0.149129    0.038774    0.079377     0.00000    1.000000    
     72 S     c    0.671478    0.045565    0.076979     0.00000    1.000000    
     73 S     c    0.432993    0.165485    0.283061     0.00000    1.000000    
     74 S     c    0.944069    0.127309    0.278386     0.00000    1.000000    
     75 S     c    0.433787    0.408993    0.283569     0.00000    1.000000    
     76 S     c    0.934301    0.401938    0.278539     0.00000    1.000000    
     77 S     c    0.418563    0.640632    0.290078     0.00000    1.000000    
     78 S     c    0.911954    0.644078    0.281707     0.00000    1.000000    
     79 S     c    0.408209    0.902252    0.286128     0.00000    1.000000    
     80 S     c    0.962544    0.897916    0.286377     0.00000    1.000000    
     81 S     c    0.569292    0.032063    0.497198     0.00000    1.000000    
     82 S     c    0.966110    0.131341    0.487267     0.00000    1.000000    
     83 S     c    0.486205    0.341689    0.495862     0.00000    1.000000    
     84 S     c    0.997981    0.326723    0.490721     0.00000    1.000000    
     85 S     c    0.474138    0.582333    0.499037     0.00000    1.000000    
     86 S     c    0.952053    0.563965    0.503630     0.00000    1.000000    
     87 S     c    0.467420    0.811288    0.508334     0.00000    1.000000    
     88 S     c    0.973822    0.818207    0.498823     0.00000    1.000000    
     89 S     c    0.413632    0.174401    0.061990     0.00000    1.000000    
     90 S     c    0.935287    0.143768    0.076004     0.00000    1.000000    
     91 S     c    0.422919    0.436229    0.057360     0.00000    1.000000    
     92 S     c    0.910672    0.373853    0.071479     0.00000    1.000000    
     93 S     c    0.431599    0.646738    0.066053     0.00000    1.000000    
     94 S     c    0.797023    0.559618    0.050233     0.00000    1.000000    
     95 S     c    0.498695    0.841726    0.021894     0.00000    1.000000    
     96 S     c    0.925688    0.892885    0.091343     0.00000    1.000000    
     97 Zr    c    0.502936    0.288297    0.339332     0.00000    1.000000    
     98 Zr    c    0.014767    0.266283    0.328968     0.00000    1.000000    
     99 Zr    c    0.495561    0.525740    0.341717     0.00000    1.000000    
    100 Zr    c    0.025420    0.517443    0.328722     0.00000    1.000000    
    101 Zr    c    0.519186    0.768234    0.325474     0.00000    1.000000    
    102 Zr    c    0.013774    0.770157    0.349778     0.00000    1.000000    
    103 Zr    c    0.497993    0.027977    0.337744     0.00000    1.000000    
    104 Zr    c    0.036809    0.033416    0.334939     0.00000    1.000000    
    105 Zr    c    0.592438    0.213794    0.527300     0.00000    1.000000    
    106 Zr    c    0.058020    0.226483    0.580248     0.00000    1.000000    
    107 Zr    c    0.580073    0.443007    0.540787     0.00000    1.000000    
    108 Zr    c    0.049573    0.457130    0.549816     0.00000    1.000000    
    109 Zr    c    0.547847    0.675117    0.558045     0.00000    1.000000    
    110 Zr    c    0.084440    0.708743    0.567786     0.00000    1.000000    
    111 Zr    c    0.574015    0.973405    0.588726     0.00000    1.000000    
    112 Zr    c    0.110976    0.950875    0.494192     0.00000    1.000000    
    113 Zr    c    0.501904    0.310192    0.106644     0.00000    1.000000    
    114 Zr    c    0.998538    0.254733    0.128401     0.00000    1.000000    
    115 Zr    c    0.487872    0.540956    0.129223     0.00000    1.000000    
    116 Zr    c    0.027923    0.574133    0.153179     0.00000    1.000000    
    117 Zr    c    0.521544    0.762898    0.112131     0.00000    1.000000    
    118 Zr    c    0.016185    0.769590    0.150229     0.00000    1.000000    
    119 Zr    c    0.498085    0.044912    0.120673     0.00000    1.000000    
    120 Zr    c    0.004076    0.026419    0.131131     0.00000    1.000000    
    121 Zr    c    0.264560    0.157520    0.323565     0.00000    1.000000    
    122 Zr    c    0.761413    0.154871    0.315770     0.00000    1.000000    
    123 Zr    c    0.260418    0.407961    0.321661     0.00000    1.000000    
    124 Zr    c    0.762298    0.409521    0.319491     0.00000    1.000000    
    125 Zr    c    0.265130    0.655997    0.341155     0.00000    1.000000    
    126 Zr    c    0.758917    0.652204    0.333833     0.00000    1.000000    
    127 Zr    c    0.266576    0.896573    0.342465     0.00000    1.000000    
    128 Zr    c    0.785836    0.915798    0.313189     0.00000    1.000000    
    129 Zr    c    0.342151    0.083718    0.552705     0.00000    1.000000    
    130 Zr    c    0.842206    0.103862    0.554997     0.00000    1.000000    
    131 Zr    c    0.315434    0.350310    0.558201     0.00000    1.000000    
    132 Zr    c    0.823120    0.347130    0.513016     0.00000    1.000000    
    133 Zr    c    0.301678    0.577509    0.557234     0.00000    1.000000    
    134 Zr    c    0.794709    0.591391    0.563750     0.00000    1.000000    
    135 Zr    c    0.308993    0.836128    0.573332     0.00000    1.000000    
    136 Zr    c    0.790974    0.819953    0.541275     0.00000    1.000000    
    137 Zr    c    0.269190    0.149727    0.114677     0.00000    1.000000    
    138 Zr    c    0.747294    0.160667    0.128257     0.00000    1.000000    
    139 Zr    c    0.199315    0.423451    0.109515     0.00000    1.000000    
    140 Zr    c    0.753319    0.425147    0.115608     0.00000    1.000000    
    141 Zr    c    0.245512    0.678126    0.113359     0.00000    1.000000    
    142 Zr    c    0.793975    0.651877    0.122160     0.00000    1.000000    
    143 Zr    c    0.237574    0.887208    0.118669     0.00000    1.000000    
    144 Zr    c    0.764575    0.906676    0.122015     0.00000    1.000000    
    145 O     c    0.960432    0.841196    0.872704     0.00000    1.000000    
    146 O     c    0.895093    0.882217    0.892924     0.00000    1.000000    
    147 O     c    0.647929    0.783483    0.951526     0.00000    1.000000    
    148 O     c    0.679733    0.756351    0.910643     0.00000    1.000000    
    149 O     c    0.470939    0.111663    0.777492     0.00000    1.000000    
    150 O     c    0.379309    0.093727    0.773699     0.00000    1.000000    
    151 O     c    0.958939    0.180922    0.891374     0.00000    1.000000    
    152 O     c    0.036588    0.155490    0.867935     0.00000    1.000000    
    153 O     c    0.123736    0.815773    0.605962     0.00000    1.000000    
    154 O     c    0.204957    0.751897    0.610625     0.00000    1.000000    
    155 O     c    0.202043    0.319678    0.921928     0.00000    1.000000    
    156 O     c    0.130940    0.279727    0.904894     0.00000    1.000000    
    157 O     c    0.262680    0.657255    0.008931     0.00000    1.000000    
    158 O     c    0.177753    0.674684    0.992518     0.00000    1.000000    
    159 O     c    0.776791    0.493680    0.926564     0.00000    1.000000    
    160 O     c    0.696605    0.527858    0.922412     0.00000    1.000000    
    161 O     c    0.464891    0.905647    0.695988     0.00000    1.000000    
    162 O     c    0.463810    0.913916    0.742404     0.00000    1.000000    
    163 O     c    0.310285    0.838399    0.848203     0.00000    1.000000    
    164 O     c    0.374182    0.895267    0.856093     0.00000    1.000000    
    165 O     c    0.782813    0.037643    0.759077     0.00000    1.000000    
    166 O     c    0.789064    0.102998    0.782582     0.00000    1.000000    
    167 O     c    0.735327    0.105603    0.946943     0.00000    1.000000    
    168 O     c    0.778592    0.062426    0.914917     0.00000    1.000000    
    169 O     c    0.039480    0.152577    0.633844     0.00000    1.000000    
    170 O     c    0.032450    0.086887    0.667479     0.00000    1.000000    
    171 O     c    0.851404    0.256513    0.982773     0.00000    1.000000    
    172 O     c    0.778354    0.207442    0.988263     0.00000    1.000000    
    173 O     c    0.462873    0.658671    0.835275     0.00000    1.000000    
    174 O     c    0.504165    0.616616    0.802924     0.00000    1.000000    
    175 O     c    0.177623    0.995779    0.715280     0.00000    1.000000    
    176 O     c    0.177403    0.034029    0.755087     0.00000    1.000000    
    177 O     c    0.571756    0.058157    0.864431     0.00000    1.000000    
    178 O     c    0.527727    0.987972    0.858223     0.00000    1.000000    
    179 O     c    0.885991    0.318930    0.921130     0.00000    1.000000    
    180 O     c    0.948118    0.374569    0.934600     0.00000    1.000000    
    181 O     c    0.680194    0.318879    0.869499     0.00000    1.000000    
    182 O     c    0.670084    0.393729    0.853577     0.00000    1.000000    
    183 O     c    0.986623    0.011462    0.973638     0.00000    1.000000    
    184 O     c    0.915626    0.961274    0.977761     0.00000    1.000000    
    185 O     c    0.109972    0.411217    0.734025     0.00000    1.000000    
    186 O     c    0.107011    0.469838    0.764296     0.00000    1.000000    
    187 O     c    0.452672    0.733722    0.704303     0.00000    1.000000    
    188 O     c    0.436761    0.747479    0.748353     0.00000    1.000000    
    189 O     c    0.881669    0.189603    0.690858     0.00000    1.000000    
    190 O     c    0.895863    0.265185    0.711523     0.00000    1.000000    
    191 O     c    0.107408    0.711318    0.866872     0.00000    1.000000    
    192 O     c    0.127071    0.657170    0.896993     0.00000    1.000000    
    193 O     c    0.344853    0.947988    0.080759     0.00000    1.000000    
    194 O     c    0.300510    0.845962    0.931053     0.00000    1.000000    
    195 O     c    0.370009    0.201918    0.829085     0.00000    1.000000    
    196 O     c    0.462628    0.192537    0.825980     0.00000    1.000000    
    197 O     c    0.211022    0.614129    0.820407     0.00000    1.000000    
    198 O     c    0.223117    0.574199    0.860648     0.00000    1.000000    
    199 O     c    0.727906    0.334350    0.699827     0.00000    1.000000    
    200 O     c    0.784509    0.321440    0.734169     0.00000    1.000000    
    201 O     c    0.165626    0.782609    0.097069     0.00000    1.000000    
    202 O     c    0.122258    0.687980    0.163356     0.00000    1.000000    
    203 O     c    0.380872    0.286785    0.729938     0.00000    1.000000    
    204 O     c    0.401920    0.257127    0.689567     0.00000    1.000000    
    205 O     c    0.254299    0.004487    0.943692     0.00000    1.000000    
    206 O     c    0.260495    0.052202    0.977754     0.00000    1.000000    
    207 O     c    0.714021    0.405422    0.960002     0.00000    1.000000    
    208 O     c    0.626287    0.433169    0.955422     0.00000    1.000000    
    209 O     c    0.701274    0.901497    0.571235     0.00000    1.000000    
    210 O     c    0.280679    0.159059    0.913757     0.00000    1.000000    
    211 O     c    0.310469    0.413189    0.748547     0.00000    1.000000    
    212 O     c    0.278425    0.483489    0.766982     0.00000    1.000000    
    213 O     c    0.913993    0.024820    0.598518     0.00000    1.000000    
    214 O     c    0.929496    0.942539    0.679991     0.00000    1.000000    
    215 O     c    0.464674    0.224690    0.918589     0.00000    1.000000    
    216 O     c    0.472824    0.211292    0.963424     0.00000    1.000000    
    217 O     c    0.358806    0.907566    0.926441     0.00000    1.000000    
    218 O     c    0.284809    0.177033    0.956730     0.00000    1.000000    
    219 O     c    0.760233    0.688849    0.736118     0.00000    1.000000    
    220 O     c    0.695962    0.740995    0.727142     0.00000    1.000000    
    221 O     c    0.683793    0.502742    0.765006     0.00000    1.000000    
    222 O     c    0.689268    0.519418    0.722553     0.00000    1.000000    
    223 O     c    0.209351    0.520436    0.703095     0.00000    1.000000    
    224 O     c    0.210052    0.446762    0.684660     0.00000    1.000000    
    225 O     c    0.055166    0.783434    0.688912     0.00000    1.000000    
    226 O     c    0.042797    0.755763    0.730163     0.00000    1.000000    
    227 O     c    0.055040    0.899419    0.760833     0.00000    1.000000    
    228 O     c    0.060552    0.825793    0.777452     0.00000    1.000000    
    229 O     c    0.841239    0.510591    0.775305     0.00000    1.000000    
    230 O     c    0.877746    0.550012    0.739263     0.00000    1.000000    
    231 O     c    0.714598    0.938412    0.686525     0.00000    1.000000    
    232 O     c    0.210713    0.907734    0.530251     0.00000    1.000000    
    233 O     c    0.454159    0.691893    0.922730     0.00000    1.000000    
    234 O     c    0.502117    0.685747    0.961757     0.00000    1.000000    
    235 O     c    0.850871    0.696172    0.783414     0.00000    1.000000    
    236 O     c    0.838822    0.764859    0.805146     0.00000    1.000000    
    237 O     c    0.271412    0.087157    0.606241     0.00000    1.000000    
    238 O     c    0.399574    0.953101    0.547830     0.00000    1.000000    
    239 O     c    0.161527    0.348804    0.978715     0.00000    1.000000    
    240 O     c    0.080082    0.313007    0.988243     0.00000    1.000000    
    241 O     c    0.705966    0.968996    0.977346     0.00000    1.000000    
    242 O     c    0.755712    0.951065    0.942007     0.00000    1.000000    
    243 O     c    0.046027    0.601584    0.819043     0.00000    1.000000    
    244 O     c    0.043094    0.556931    0.856007     0.00000    1.000000    
    245 O     c    0.751053    0.745178    0.986664     0.00000    1.000000    
    246 O     c    0.799479    0.709142    0.953891     0.00000    1.000000    
    247 O     c    0.385609    0.401080    0.863037     0.00000    1.000000    
    248 O     c    0.438142    0.413126    0.900052     0.00000    1.000000    
    249 O     c    0.148350    0.984688    0.866881     0.00000    1.000000    
    250 O     c    0.062180    0.959635    0.861414     0.00000    1.000000    
    251 O     c    0.282877    0.728370    0.695418     0.00000    1.000000    
    252 O     c    0.283601    0.742819    0.739340     0.00000    1.000000    
    253 O     c    0.393079    0.584528    0.923699     0.00000    1.000000    
    254 O     c    0.443210    0.557121    0.958917     0.00000    1.000000    
    255 O     c    0.065955    0.833885    0.994537     0.00000    1.000000    
    256 O     c    0.106368    0.896313    0.974337     0.00000    1.000000    
    257 O     c    0.629854    0.938102    0.660974     0.00000    1.000000    
    258 O     c    0.709729    0.710098    0.540231     0.00000    1.000000    
    259 O     c    0.736968    0.955150    0.795489     0.00000    1.000000    
    260 O     c    0.751763    0.990299    0.835503     0.00000    1.000000    
    261 O     c    0.158760    0.543703    0.983875     0.00000    1.000000    
    262 O     c    0.242202    0.528286    0.000511     0.00000    1.000000    
    263 O     c    0.804044    0.212398    0.846592     0.00000    1.000000    
    264 O     c    0.830615    0.263809    0.815365     0.00000    1.000000    
    265 O     c    0.297311    0.901926    0.770219     0.00000    1.000000    
    266 O     c    0.272690    0.971178    0.791747     0.00000    1.000000    
    267 O     c    0.635658    0.231287    0.707659     0.00000    1.000000    
    268 O     c    0.687111    0.191943    0.739751     0.00000    1.000000    
    269 O     c    0.311901    0.450113    0.065668     0.00000    1.000000    
    270 O     c    0.140228    0.571108    0.107065     0.00000    1.000000    
    271 O     c    0.513405    0.056760    0.927475     0.00000    1.000000    
    272 O     c    0.529179    0.092981    0.966210     0.00000    1.000000    
    273 O     c    0.952144    0.668046    0.900785     0.00000    1.000000    
    274 O     c    0.954156    0.739877    0.920883     0.00000    1.000000    
    275 O     c    0.040832    0.225587    0.770013     0.00000    1.000000    
    276 O     c    0.058006    0.153099    0.757375     0.00000    1.000000    
    277 O     c    0.204286    0.201355    0.724008     0.00000    1.000000    
    278 O     c    0.196459    0.271953    0.741968     0.00000    1.000000    
    279 O     c    0.652862    0.784272    0.808476     0.00000    1.000000    
    280 O     c    0.582740    0.825785    0.826757     0.00000    1.000000    
    281 O     c    0.994281    0.326577    0.830011     0.00000    1.000000    
    282 O     c    0.047865    0.389974    0.844912     0.00000    1.000000    
    283 O     c    0.474857    0.454357    0.811608     0.00000    1.000000    
    284 O     c    0.539444    0.469763    0.842483     0.00000    1.000000    
    285 O     c    0.638289    0.611797    0.815634     0.00000    1.000000    
    286 O     c    0.641487    0.666923    0.848669     0.00000    1.000000    
    287 O     c    0.944757    0.671141    0.107930     0.00000    1.000000    
    288 O     c    0.331960    0.897029    0.634808     0.00000    1.000000    
--------------------------------------------------------------------------------



********************************************************************************
*  Input for Configuration =   2                                               *
********************************************************************************

  Formula = S96Zr48O144                                                 

  Number of irreducible atoms/shells =     288


  Total number atoms/shells =     288

  Dimensionality = 3               :  Bulk   



  Cartesian lattice vectors (Angstroms) :

       13.276200    0.000000    0.000000
        0.000000   15.330000    0.000000
        0.000000    0.000000   27.849150

  Cell parameters (Angstroms/Degrees):

  a =      13.2762    alpha =  90.0000
  b =      15.3300    beta  =  90.0000
  c =      27.8492    gamma =  90.0000

  Initial cell volume =        5667.974644 Angs**3

  Temperature of configuration =   0.00     K 

  Pressure of configuration =         0.000 GPa 

  Fractional coordinates of asymmetric unit :

--------------------------------------------------------------------------------
   No.  Atomic       x           y          z         Charge      Occupancy
        Label      (Frac)      (Frac)     (Frac)        (e)         (Frac)  
--------------------------------------------------------------------------------
      1 S     c    0.096892    0.157890    0.382168     0.00000    1.000000    
      2 S     c    0.598755    0.152764    0.379711     0.00000    1.000000    
      3 S     c    0.100083    0.396982    0.378142     0.00000    1.000000    
      4 S     c    0.608832    0.407928    0.378327     0.00000    1.000000    
      5 S     c    0.098033    0.658214    0.389460     0.00000    1.000000    
      6 S     c    0.602563    0.666718    0.385769     0.00000    1.000000    
      7 S     c    0.110718    0.907709    0.400132     0.00000    1.000000    
      8 S     c    0.593282    0.902387    0.371218     0.00000    1.000000    
      9 S     c    0.116434    0.080890    0.554156     0.00000    1.000000    
     10 S     c    0.679887    0.124483    0.593057     0.00000    1.000000    
     11 S     c    0.156508    0.347429    0.613552     0.00000    1.000000    
     12 S     c    0.678713    0.330386    0.575452     0.00000    1.000000    
     13 S     c    0.140416    0.562825    0.606663     0.00000    1.000000    
     14 S     c    0.630870    0.553545    0.600347     0.00000    1.000000    
     15 S     c    0.981821    0.980843    0.638983     0.00000    1.000000    
     16 S     c    0.499227    0.837432    0.584172     0.00000    1.000000    
     17 S     c    0.099599    0.151990    0.179735     0.00000    1.000000    
     18 S     c    0.586591    0.135271    0.179213     0.00000    1.000000    
     19 S     c    0.067899    0.403320    0.174560     0.00000    1.000000    
     20 S     c    0.595261    0.416008    0.164766     0.00000    1.000000    
     21 S     c    0.025343    0.688275    0.230892     0.00000    1.000000    
     22 S     c    0.602637    0.652848    0.163653     0.00000    1.000000    
     23 S     c    0.083137    0.914149    0.191354     0.00000    1.000000    
     24 S     c    0.563844    0.904017    0.157089     0.00000    1.000000    
     25 S     c    0.329816    0.276482    0.379522     0.00000    1.000000    
     26 S     c    0.845521    0.287693    0.371619     0.00000    1.000000    
     27 S     c    0.334642    0.506798    0.384883     0.00000    1.000000    
     28 S     c    0.852291    0.528258    0.376287     0.00000    1.000000    
     29 S     c    0.351280    0.779648    0.391783     0.00000    1.000000    
     30 S     c    0.848523    0.784650    0.379644     0.00000    1.000000    
     31 S     c    0.336273    0.032572    0.392415     0.00000    1.000000    
     32 S     c    0.830549    0.042235    0.376790     0.00000    1.000000    
     33 S     c    0.430996    0.209258    0.594614     0.00000    1.000000    
     34 S     c    0.858910    0.244789    0.592374     0.00000    1.000000    
     35 S     c    0.416648    0.456362    0.600238     0.00000    1.000000    
     36 S     c    0.885875    0.446856    0.589901     0.00000    1.000000    
     37 S     c    0.419288    0.638937    0.614440     0.00000    1.000000    
     38 S     c    0.867929    0.726131    0.610674     0.00000    1.000000    
     39 S     c    0.399996    0.974714    0.654069     0.00000    1.000000    
     40 S     c    0.930994    0.989748    0.496311     0.00000    1.000000    
     41 S     c    0.346601    0.303581    0.162310     0.00000    1.000000    
     42 S     c    0.821686    0.285904    0.177391     0.00000    1.000000    
     43 S     c    0.318705    0.532362    0.165192     0.00000    1.000000    
     44 S     c    0.834075    0.523098    0.183515     0.00000    1.000000    
     45 S     c    0.361410    0.792877    0.170269     0.00000    1.000000    
     46 S     c    0.832537    0.776991    0.181130     0.00000    1.000000    
     47 S     c    0.329364    0.038778    0.165996     0.00000    1.000000    
     48 S     c    0.826314    0.041442    0.182298     0.00000    1.000000    
     49 S     c    0.184081    0.280805    0.275649     0.00000    1.000000    
     50 S     c    0.668438    0.286461    0.278920     0.00000    1.000000    
     51 S     c    0.181498    0.536043    0.275623     0.00000    1.000000    
     52 S     c    0.665605    0.540314    0.285689     0.00000    1.000000    
     53 S     c    0.174023    0.769068    0.293386     0.00000    1.000000    
     54 S     c    0.681490    0.783935    0.283217     0.00000    1.000000    
     55 S     c    0.187591    0.022648    0.282595     0.00000    1.000000    
     56 S     c    0.676508    0.035440    0.274932     0.00000    1.000000    
     57 S     c    0.227490    0.230768    0.508999     0.00000    1.000000    
     58 S     c    0.732766    0.209876    0.470326     0.00000    1.000000    
     59 S     c    0.245992    0.456840    0.498007     0.00000    1.000000    
     60 S     c    0.734153    0.491282    0.487551     0.00000    1.000000    
     61 S     c    0.229414    0.699397    0.513233     0.00000    1.000000    
     62 S     c    0.723618    0.882559    0.466137     0.00000    1.000000    
     63 S     c    0.249028    0.082403    0.452690     0.00000    1.000000    
     64 S     c    0.711802    0.015267    0.463272     0.00000    1.000000    
     65 S     c    0.159289    0.264926    0.077929     0.00000    1.000000    
     66 S     c    0.676319    0.282056    0.074997     0.00000    1.000000    
     67 S     c    0.011867    0.470590    0.062436     0.00000    1.000000    
     68 S     c    0.643029    0.534229    0.056887     0.00000    1.000000    
     69 S     c    0.356643    0.848547    0.038632     0.00000    1.000000    
     70 S     c    0.698490    0.760763    0.077882     0.00000    1.000000    
     71 S     c    0.148744    0.038331    0.079575     0.00000    1.000000    
     72 S     c    0.672020    0.045145    0.077327     0.00000    1.000000    
     73 S     c    0.433064    0.165400    0.283126     0.00000    1.000000    
     74 S     c    0.944021    0.127567    0.278506     0.00000    1.000000    
     75 S     c    0.433831    0.409449    0.283729     0.00000    1.000000    
     76 S     c    0.934685    0.401789    0.278373     0.00000    1.000000    
     77 S     c    0.418108    0.640423    0.290354     0.00000    1.000000    
     78 S     c    0.912072    0.643885    0.281815     0.00000    1.000000    
     79 S     c    0.408053    0.902176    0.286103     0.00000    1.000000    
     80 S     c    0.962253    0.897891    0.286407     0.00000    1.000000    
     81 S     c    0.569484    0.031702    0.497369     0.00000    1.000000    
     82 S     c    0.967015    0.131258    0.487499     0.00000    1.000000    
     83 S     c    0.486220    0.341335    0.495523     0.00000    1.000000    
     84 S     c    0.998404    0.326695    0.490395     0.00000    1.000000    
     85 S     c    0.474533    0.582566    0.499015     0.00000    1.000000    
     86 S     c    0.952669    0.563862    0.503434     0.00000    1.000000    
     87 S     c    0.467659    0.811446    0.508079     0.00000    1.000000    
     88 S     c    0.973926    0.818009    0.498956     0.00000    1.000000    
     89 S     c    0.413121    0.174031    0.061590     0.00000    1.000000    
     90 S     c    0.935352    0.143641    0.076348     0.00000    1.000000    
     91 S     c    0.422877    0.436052    0.057538     0.00000    1.000000    
     92 S     c    0.909930    0.374667    0.071822     0.00000    1.000000    
     93 S     c    0.431864    0.647397    0.065913     0.00000    1.000000    
     94 S     c    0.796909    0.559706    0.049877     0.00000    1.000000    
     95 S     c    0.499023    0.841386    0.021759     0.00000    1.000000    
     96 S     c    0.925946    0.892980    0.091256     0.00000    1.000000    
     97 Zr    c    0.502884    0.288283    0.339460     0.00000    1.000000    
     98 Zr    c    0.014711    0.266361    0.328879     0.00000    1.000000    
     99 Zr    c    0.495587    0.526017    0.341687     0.00000    1.000000    
    100 Zr    c    0.024991    0.517303    0.328837     0.00000    1.000000    
    101 Zr    c    0.519391    0.768258    0.325496     0.00000    1.000000    
    102 Zr    c    0.013792    0.770225    0.349781     0.00000    1.000000    
    103 Zr    c    0.498122    0.027867    0.337787     0.00000    1.000000    
    104 Zr    c    0.036989    0.033594    0.334917     0.00000    1.000000    
    105 Zr    c    0.592417    0.214254    0.527245     0.00000    1.000000    
    106 Zr    c    0.058337    0.226581    0.580182     0.00000    1.000000    
    107 Zr    c    0.579659    0.442956    0.540669     0.00000    1.000000    
    108 Zr    c    0.049617    0.456795    0.549891     0.00000    1.000000    
    109 Zr    c    0.547958    0.675467    0.557911     0.00000    1.000000    
    110 Zr    c    0.084397    0.708553    0.567792     0.00000    1.000000    
    111 Zr    c    0.573584    0.973258    0.588769     0.00000    1.000000    
    112 Zr    c    0.111095    0.950795    0.494148     0.00000    1.000000    
    113 Zr    c    0.501825    0.310295    0.106719     0.00000    1.000000    
    114 Zr    c    0.998332    0.254843    0.128272     0.00000    1.000000    
    115 Zr    c    0.488006    0.540946    0.129150     0.00000    1.000000    
    116 Zr    c    0.027699    0.574093    0.153216     0.00000    1.000000    
    117 Zr    c    0.521987    0.762840    0.112128     0.00000    1.000000    
    118 Zr    c    0.016012    0.769811    0.150375     0.00000    1.000000    
    119 Zr    c    0.497929    0.044973    0.120469     0.00000    1.000000    
    120 Zr    c    0.004100    0.026376    0.131361     0.00000    1.000000    
    121 Zr    c    0.264515    0.157640    0.323582     0.00000    1.000000    
    122 Zr    c    0.761393    0.154897    0.315901     0.00000    1.000000    
    123 Zr    c    0.260537    0.408030    0.321707     0.00000    1.000000    
    124 Zr    c    0.762424    0.409432    0.319557     0.00000    1.000000    
    125 Zr    c    0.265188    0.656033    0.341106     0.00000    1.000000    
    126 Zr    c    0.758533    0.652188    0.333939     0.00000    1.000000    
    127 Zr    c    0.266884    0.896573    0.342305     0.00000    1.000000    
    128 Zr    c    0.785707    0.915680    0.313221     0.00000    1.000000    
    129 Zr    c    0.342137    0.083664    0.552792     0.00000    1.000000    
    130 Zr    c    0.842513    0.103746    0.554818     0.00000    1.000000    
    131 Zr    c    0.315773    0.350740    0.558179     0.00000    1.000000    
    132 Zr    c    0.822897    0.347397    0.513002     0.00000    1.000000    
    133 Zr    c    0.301727    0.577318    0.557179     0.00000    1.000000    
    134 Zr    c    0.794579    0.591311    0.563805     0.00000    1.000000    
    135 Zr    c    0.308686    0.835791    0.572986     0.00000    1.000000    
    136 Zr    c    0.791366    0.819480    0.541349     0.00000    1.000000    
    137 Zr    c    0.269172    0.149683    0.115005     0.00000    1.000000    
    138 Zr    c    0.747228    0.160382    0.128574     0.00000    1.000000    
    139 Zr    c    0.199028    0.423440    0.109572     0.00000    1.000000    
    140 Zr    c    0.753251    0.425614    0.115582     0.00000    1.000000    
    141 Zr    c    0.245116    0.678133    0.113332     0.00000    1.000000    
    142 Zr    c    0.793835    0.652043    0.122144     0.00000    1.000000    
    143 Zr    c    0.237469    0.886905    0.118423     0.00000    1.000000    
    144 Zr    c    0.764344    0.906864    0.122093     0.00000    1.000000    
    145 O     c    0.961399    0.841247    0.872231     0.00000    1.000000    
    146 O     c    0.894954    0.881511    0.892666     0.00000    1.000000    
    147 O     c    0.648784    0.783742    0.951176     0.00000    1.000000    
    148 O     c    0.680085    0.756299    0.910578     0.00000    1.000000    
    149 O     c    0.471113    0.112054    0.777507     0.00000    1.000000    
    150 O     c    0.379853    0.093412    0.772888     0.00000    1.000000    
    151 O     c    0.959441    0.180476    0.891270     0.00000    1.000000    
    152 O     c    0.036363    0.154914    0.867701     0.00000    1.000000    
    153 O     c    0.123414    0.815718    0.605642     0.00000    1.000000    
    154 O     c    0.205725    0.751165    0.610228     0.00000    1.000000    
    155 O     c    0.201863    0.320774    0.922104     0.00000    1.000000    
    156 O     c    0.130752    0.279496    0.905244     0.00000    1.000000    
    157 O     c    0.262814    0.656746    0.009213     0.00000    1.000000    
    158 O     c    0.177819    0.674004    0.992708     0.00000    1.000000    
    159 O     c    0.776717    0.493607    0.926432     0.00000    1.000000    
    160 O     c    0.696579    0.527436    0.922496     0.00000    1.000000    
    161 O     c    0.464898    0.904908    0.695988     0.00000    1.000000    
    162 O     c    0.463128    0.912647    0.742924     0.00000    1.000000    
    163 O     c    0.309127    0.838562    0.848211     0.00000    1.000000    
    164 O     c    0.374341    0.895359    0.856286     0.00000    1.000000    
    165 O     c    0.783100    0.038106    0.759075     0.00000    1.000000    
    166 O     c    0.788911    0.103436    0.782709     0.00000    1.000000    
    167 O     c    0.736348    0.106085    0.946397     0.00000    1.000000    
    168 O     c    0.778469    0.062005    0.914766     0.00000    1.000000    
    169 O     c    0.039597    0.153142    0.633874     0.00000    1.000000    
    170 O     c    0.033412    0.087108    0.667891     0.00000    1.000000    
    171 O     c    0.851201    0.256461    0.982959     0.00000    1.000000    
    172 O     c    0.777970    0.207118    0.988179     0.00000    1.000000    
    173 O     c    0.462903    0.658244    0.835215     0.00000    1.000000    
    174 O     c    0.504729    0.616479    0.802761     0.00000    1.000000    
    175 O     c    0.177483    0.996573    0.715767     0.00000    1.000000    
    176 O     c    0.177598    0.034222    0.754952     0.00000    1.000000    
    177 O     c    0.570291    0.058105    0.864550     0.00000    1.000000    
    178 O     c    0.528131    0.987490    0.858542     0.00000    1.000000    
    179 O     c    0.885652    0.318249    0.921027     0.00000    1.000000    
    180 O     c    0.947696    0.374156    0.935300     0.00000    1.000000    
    181 O     c    0.680125    0.319149    0.869337     0.00000    1.000000    
    182 O     c    0.669535    0.394614    0.853922     0.00000    1.000000    
    183 O     c    0.987104    0.010879    0.973964     0.00000    1.000000    
    184 O     c    0.915830    0.960938    0.977888     0.00000    1.000000    
    185 O     c    0.109093    0.411892    0.734047     0.00000    1.000000    
    186 O     c    0.107555    0.470327    0.764705     0.00000    1.000000    
    187 O     c    0.452899    0.733283    0.704177     0.00000    1.000000    
    188 O     c    0.437026    0.748217    0.748019     0.00000    1.000000    
    189 O     c    0.881313    0.189609    0.690314     0.00000    1.000000    
    190 O     c    0.895252    0.264847    0.711630     0.00000    1.000000    
    191 O     c    0.107278    0.710848    0.866559     0.00000    1.000000    
    192 O     c    0.126673    0.657879    0.897063     0.00000    1.000000    
    193 O     c    0.345045    0.947866    0.081132     0.00000    1.000000    
    194 O     c    0.299874    0.845633    0.930773     0.00000    1.000000    
    195 O     c    0.369865    0.201335    0.829110     0.00000    1.000000    
    196 O     c    0.462174    0.192624    0.826267     0.00000    1.000000    
    197 O     c    0.209912    0.613650    0.820823     0.00000    1.000000    
    198 O     c    0.223912    0.574254    0.860980     0.00000    1.000000    
    199 O     c    0.728229    0.334398    0.699542     0.00000    1.000000    
    200 O     c    0.784857    0.320312    0.733607     0.00000    1.000000    
    201 O     c    0.165943    0.782481    0.097093     0.00000    1.000000    
    202 O     c    0.122377    0.686631    0.163625     0.00000    1.000000    
    203 O     c    0.380738    0.287027    0.729822     0.00000    1.000000    
    204 O     c    0.401921    0.257288    0.689512     0.00000    1.000000    
    205 O     c    0.254435    0.004714    0.943808     0.00000    1.000000    
    206 O     c    0.260146    0.051856    0.977826     0.00000    1.000000    
    207 O     c    0.713379    0.405288    0.960079     0.00000    1.000000    
    208 O     c    0.625594    0.433759    0.955155     0.00000    1.000000    
    209 O     c    0.700643    0.901196    0.571217     0.00000    1.000000    
    210 O     c    0.280946    0.158673    0.913572     0.00000    1.000000    
    211 O     c    0.309905    0.412819    0.748541     0.00000    1.000000    
    212 O     c    0.278275    0.483038    0.767240     0.00000    1.000000    
    213 O     c    0.912720    0.024892    0.598687     0.00000    1.000000    
    214 O     c    0.929962    0.942456    0.679730     0.00000    1.000000    
    215 O     c    0.464127    0.224104    0.918370     0.00000    1.000000    
    216 O     c    0.472485    0.210708    0.963374     0.00000    1.000000    
    217 O     c    0.358548    0.908378    0.926043     0.00000    1.000000    
    218 O     c    0.284403    0.176283    0.956615     0.00000    1.000000    
    219 O     c    0.760543    0.687937    0.736208     0.00000    1.000000    
    220 O     c    0.697834    0.741390    0.727290     0.00000    1.000000    
    221 O     c    0.683910    0.502948    0.765240     0.00000    1.000000    
    222 O     c    0.689547    0.520205    0.722974     0.00000    1.000000    
    223 O     c    0.209912    0.520856    0.703113     0.00000    1.000000    
    224 O     c    0.209731    0.447113    0.684604     0.00000    1.000000    
    225 O     c    0.054801    0.783334    0.689039     0.00000    1.000000    
    226 O     c    0.042353    0.755701    0.729741     0.00000    1.000000    
    227 O     c    0.055581    0.898985    0.761086     0.00000    1.000000    
    228 O     c    0.059746    0.826215    0.777760     0.00000    1.000000    
    229 O     c    0.841023    0.510659    0.775504     0.00000    1.000000    
    230 O     c    0.877738    0.549626    0.739271     0.00000    1.000000    
    231 O     c    0.714765    0.939102    0.686481     0.00000    1.000000    
    232 O     c    0.211249    0.908825    0.530163     0.00000    1.000000    
    233 O     c    0.454272    0.691749    0.922649     0.00000    1.000000    
    234 O     c    0.501807    0.686573    0.961649     0.00000    1.000000    
    235 O     c    0.851049    0.696027    0.783188     0.00000    1.000000    
    236 O     c    0.838427    0.765146    0.804839     0.00000    1.000000    
    237 O     c    0.271574    0.087226    0.606008     0.00000    1.000000    
    238 O     c    0.400332    0.953870    0.547980     0.00000    1.000000    
    239 O     c    0.162439    0.347734    0.978509     0.00000    1.000000    
    240 O     c    0.080058    0.313577    0.988489     0.00000    1.000000    
    241 O     c    0.705526    0.968950    0.977199     0.00000    1.000000    
    242 O     c    0.755495    0.951164    0.942059     0.00000    1.000000    
    243 O     c    0.046005    0.601965    0.819221     0.00000    1.000000    
    244 O     c    0.044624    0.556506    0.856023     0.00000    1.000000    
    245 O     c    0.751159    0.744680    0.987217     0.00000    1.000000    
    246 O     c    0.799213    0.708725    0.953719     0.00000    1.000000    
    247 O     c    0.384832    0.400944    0.862842     0.00000    1.000000    
    248 O     c    0.438547    0.412628    0.900015     0.00000    1.000000    
    249 O     c    0.149348    0.984392    0.866755     0.00000    1.000000    
    250 O     c    0.062490    0.959853    0.860997     0.00000    1.000000    
    251 O     c    0.282558    0.727916    0.695445     0.00000    1.000000    
    252 O     c    0.283562    0.741934    0.739447     0.00000    1.000000    
    253 O     c    0.393338    0.584457    0.923602     0.00000    1.000000    
    254 O     c    0.442441    0.556851    0.959218     0.00000    1.000000    
    255 O     c    0.067265    0.834545    0.994811     0.00000    1.000000    
    256 O     c    0.106349    0.896862    0.974319     0.00000    1.000000    
    257 O     c    0.629418    0.937984    0.661102     0.00000    1.000000    
    258 O     c    0.709726    0.710620    0.540322     0.00000    1.000000    
    259 O     c    0.737316    0.955223    0.795146     0.00000    1.000000    
    260 O     c    0.751818    0.990630    0.835496     0.00000    1.000000    
    261 O     c    0.157941    0.543287    0.983536     0.00000    1.000000    
    262 O     c    0.241764    0.528318    0.000545     0.00000    1.000000    
    263 O     c    0.803483    0.212257    0.846082     0.00000    1.000000    
    264 O     c    0.830279    0.264068    0.815128     0.00000    1.000000    
    265 O     c    0.299052    0.901997    0.770425     0.00000    1.000000    
    266 O     c    0.271835    0.970557    0.791762     0.00000    1.000000    
    267 O     c    0.634743    0.230970    0.707649     0.00000    1.000000    
    268 O     c    0.687208    0.191994    0.739830     0.00000    1.000000    
    269 O     c    0.312400    0.450057    0.065481     0.00000    1.000000    
    270 O     c    0.140109    0.571744    0.107286     0.00000    1.000000    
    271 O     c    0.513193    0.056530    0.927723     0.00000    1.000000    
    272 O     c    0.527917    0.092794    0.966214     0.00000    1.000000    
    273 O     c    0.951998    0.667802    0.900624     0.00000    1.000000    
    274 O     c    0.954220    0.739320    0.921087     0.00000    1.000000    
    275 O     c    0.040133    0.226644    0.769836     0.00000    1.000000    
    276 O     c    0.057809    0.153922    0.756709     0.00000    1.000000    
    277 O     c    0.203843    0.201502    0.724175     0.00000    1.000000    
    278 O     c    0.196033    0.271575    0.741851     0.00000    1.000000    
    279 O     c    0.652383    0.784354    0.808096     0.00000    1.000000    
    280 O     c    0.582054    0.825462    0.827312     0.00000    1.000000    
    281 O     c    0.994951    0.326303    0.830243     0.00000    1.000000    
    282 O     c    0.047728    0.390611    0.844959     0.00000    1.000000    
    283 O     c    0.475159    0.454587    0.811466     0.00000    1.000000    
    284 O     c    0.539972    0.469395    0.842111     0.00000    1.000000    
    285 O     c    0.638974    0.611635    0.815978     0.00000    1.000000    
    286 O     c    0.640930    0.666294    0.848652     0.00000    1.000000    
    287 O     c    0.944924    0.671890    0.107991     0.00000    1.000000    
    288 O     c    0.332353    0.897486    0.634756     0.00000    1.000000    
--------------------------------------------------------------------------------



********************************************************************************
*  Input for Configuration =   3                                               *
********************************************************************************

  Formula = S96Zr48O144                                                 

  Number of irreducible atoms/shells =     288


  Total number atoms/shells =     288

  Dimensionality = 3               :  Bulk   



  Cartesian lattice vectors (Angstroms) :

       13.276200    0.000000    0.000000
        0.000000   15.330000    0.000000
        0.000000    0.000000   27.849150

  Cell parameters (Angstroms/Degrees):

  a =      13.2762    alpha =  90.0000
  b =      15.3300    beta  =  90.0000
  c =      27.8492    gamma =  90.0000

  Initial cell volume =        5667.974644 Angs**3

  Temperature of configuration =   0.00     K 

  Pressure of configuration =         0.000 GPa 

  Fractional coordinates of asymmetric unit :

--------------------------------------------------------------------------------
   No.  Atomic       x           y          z         Charge      Occupancy
        Label      (Frac)      (Frac)     (Frac)        (e)         (Frac)  
--------------------------------------------------------------------------------
      1 S     c    0.096739    0.157956    0.382184     0.00000    1.000000    
      2 S     c    0.598886    0.152515    0.379720     0.00000    1.000000    
      3 S     c    0.099750    0.397253    0.378145     0.00000    1.000000    
      4 S     c    0.609251    0.408068    0.378408     0.00000    1.000000    
      5 S     c    0.097725    0.657922    0.389386     0.00000    1.000000    
      6 S     c    0.601811    0.666838    0.385849     0.00000    1.000000    
      7 S     c    0.111375    0.907798    0.399907     0.00000    1.000000    
      8 S     c    0.593809    0.902435    0.371236     0.00000    1.000000    
      9 S     c    0.116480    0.080979    0.554062     0.00000    1.000000    
     10 S     c    0.680456    0.123901    0.592830     0.00000    1.000000    
     11 S     c    0.156485    0.347110    0.613823     0.00000    1.000000    
     12 S     c    0.678501    0.330939    0.575429     0.00000    1.000000    
     13 S     c    0.140234    0.562825    0.606462     0.00000    1.000000    
     14 S     c    0.630958    0.553853    0.600635     0.00000    1.000000    
     15 S     c    0.981515    0.981409    0.639441     0.00000    1.000000    
     16 S     c    0.499643    0.837536    0.584101     0.00000    1.000000    
     17 S     c    0.099110    0.150833    0.179770     0.00000    1.000000    
     18 S     c    0.586632    0.135972    0.179256     0.00000    1.000000    
     19 S     c    0.067931    0.403005    0.175224     0.00000    1.000000    
     20 S     c    0.595611    0.416521    0.164821     0.00000    1.000000    
     21 S     c    0.025772    0.688368    0.231001     0.00000    1.000000    
     22 S     c    0.602602    0.652551    0.163804     0.00000    1.000000    
     23 S     c    0.083199    0.914814    0.191264     0.00000    1.000000    
     24 S     c    0.562956    0.904096    0.157346     0.00000    1.000000    
     25 S     c    0.329887    0.276649    0.379541     0.00000    1.000000    
     26 S     c    0.845429    0.287966    0.371529     0.00000    1.000000    
     27 S     c    0.334291    0.506967    0.384824     0.00000    1.000000    
     28 S     c    0.852188    0.528134    0.376123     0.00000    1.000000    
     29 S     c    0.351360    0.779087    0.391698     0.00000    1.000000    
     30 S     c    0.848663    0.785022    0.379684     0.00000    1.000000    
     31 S     c    0.335936    0.032162    0.392300     0.00000    1.000000    
     32 S     c    0.830215    0.042513    0.376901     0.00000    1.000000    
     33 S     c    0.431038    0.209246    0.594803     0.00000    1.000000    
     34 S     c    0.859020    0.244873    0.592278     0.00000    1.000000    
     35 S     c    0.415690    0.455549    0.600152     0.00000    1.000000    
     36 S     c    0.886230    0.446128    0.589508     0.00000    1.000000    
     37 S     c    0.420160    0.639310    0.614709     0.00000    1.000000    
     38 S     c    0.867902    0.726238    0.610643     0.00000    1.000000    
     39 S     c    0.399461    0.974496    0.654141     0.00000    1.000000    
     40 S     c    0.930860    0.989828    0.496523     0.00000    1.000000    
     41 S     c    0.346906    0.303795    0.162562     0.00000    1.000000    
     42 S     c    0.821815    0.286193    0.177236     0.00000    1.000000    
     43 S     c    0.318661    0.532502    0.165277     0.00000    1.000000    
     44 S     c    0.833954    0.523326    0.183280     0.00000    1.000000    
     45 S     c    0.362550    0.792985    0.170162     0.00000    1.000000    
     46 S     c    0.832617    0.777373    0.181290     0.00000    1.000000    
     47 S     c    0.330151    0.038525    0.166287     0.00000    1.000000    
     48 S     c    0.826394    0.041812    0.182335     0.00000    1.000000    
     49 S     c    0.183604    0.280906    0.275610     0.00000    1.000000    
     50 S     c    0.667876    0.286376    0.278936     0.00000    1.000000    
     51 S     c    0.181416    0.535770    0.275725     0.00000    1.000000    
     52 S     c    0.665706    0.540055    0.285464     0.00000    1.000000    
     53 S     c    0.174157    0.769129    0.293526     0.00000    1.000000    
     54 S     c    0.681126    0.784090    0.282924     0.00000    1.000000    
     55 S     c    0.187928    0.022506    0.282592     0.00000    1.000000    
     56 S     c    0.676582    0.035935    0.274690     0.00000    1.000000    
     57 S     c    0.227712    0.230708    0.508893     0.00000    1.000000    
     58 S     c    0.733091    0.209859    0.470283     0.00000    1.000000    
     59 S     c    0.246385    0.456836    0.497561     0.00000    1.000000    
     60 S     c    0.734432    0.490831    0.487443     0.00000    1.000000    
     61 S     c    0.229597    0.698939    0.512954     0.00000    1.000000    
     62 S     c    0.724301    0.881526    0.466018     0.00000    1.000000    
     63 S     c    0.249097    0.082503    0.452428     0.00000    1.000000    
     64 S     c    0.712637    0.016171    0.462988     0.00000    1.000000    
     65 S     c    0.159717    0.264185    0.077824     0.00000    1.000000    
     66 S     c    0.676320    0.282865    0.075115     0.00000    1.000000    
     67 S     c    0.011259    0.471055    0.062465     0.00000    1.000000    
     68 S     c    0.642831    0.534484    0.056724     0.00000    1.000000    
     69 S     c    0.356552    0.849379    0.038930     0.00000    1.000000    
     70 S     c    0.698967    0.760949    0.077794     0.00000    1.000000    
     71 S     c    0.148366    0.037868    0.079766     0.00000    1.000000    
     72 S     c    0.672564    0.044706    0.077670     0.00000    1.000000    
     73 S     c    0.433128    0.165303    0.283194     0.00000    1.000000    
     74 S     c    0.943967    0.127856    0.278629     0.00000    1.000000    
     75 S     c    0.433876    0.409908    0.283888     0.00000    1.000000    
     76 S     c    0.935080    0.401645    0.278207     0.00000    1.000000    
     77 S     c    0.417657    0.640225    0.290621     0.00000    1.000000    
     78 S     c    0.912232    0.643700    0.281922     0.00000    1.000000    
     79 S     c    0.407909    0.902102    0.286078     0.00000    1.000000    
     80 S     c    0.961951    0.897867    0.286441     0.00000    1.000000    
     81 S     c    0.569668    0.031351    0.497542     0.00000    1.000000    
     82 S     c    0.967932    0.131168    0.487736     0.00000    1.000000    
     83 S     c    0.486213    0.340955    0.495174     0.00000    1.000000    
     84 S     c    0.998839    0.326674    0.490079     0.00000    1.000000    
     85 S     c    0.474925    0.582793    0.498989     0.00000    1.000000    
     86 S     c    0.953302    0.563784    0.503241     0.00000    1.000000    
     87 S     c    0.467903    0.811588    0.507837     0.00000    1.000000    
     88 S     c    0.974048    0.817802    0.499099     0.00000    1.000000    
     89 S     c    0.412629    0.173650    0.061198     0.00000    1.000000    
     90 S     c    0.935389    0.143513    0.076693     0.00000    1.000000    
     91 S     c    0.422941    0.435858    0.057710     0.00000    1.000000    
     92 S     c    0.909189    0.375466    0.072160     0.00000    1.000000    
     93 S     c    0.432115    0.648057    0.065784     0.00000    1.000000    
     94 S     c    0.796795    0.559775    0.049518     0.00000    1.000000    
     95 S     c    0.499357    0.841042    0.021633     0.00000    1.000000    
     96 S     c    0.926232    0.893074    0.091156     0.00000    1.000000    
     97 Zr    c    0.502835    0.288261    0.339589     0.00000    1.000000    
     98 Zr    c    0.014647    0.266444    0.328787     0.00000    1.000000    
     99 Zr    c    0.495623    0.526293    0.341659     0.00000    1.000000    
    100 Zr    c    0.024552    0.517159    0.328953     0.00000    1.000000    
    101 Zr    c    0.519594    0.768291    0.325521     0.00000    1.000000    
    102 Zr    c    0.013811    0.770303    0.349781     0.00000    1.000000    
    103 Zr    c    0.498259    0.027757    0.337831     0.00000    1.000000    
    104 Zr    c    0.037160    0.033769    0.334895     0.00000    1.000000    
    105 Zr    c    0.592392    0.214715    0.527192     0.00000    1.000000    
    106 Zr    c    0.058655    0.226680    0.580111     0.00000    1.000000    
    107 Zr    c    0.579238    0.442917    0.540547     0.00000    1.000000    
    108 Zr    c    0.049660    0.456462    0.549964     0.00000    1.000000    
    109 Zr    c    0.548073    0.675825    0.557773     0.00000    1.000000    
    110 Zr    c    0.084343    0.708363    0.567798     0.00000    1.000000    
    111 Zr    c    0.573171    0.973123    0.588811     0.00000    1.000000    
    112 Zr    c    0.111204    0.950724    0.494097     0.00000    1.000000    
    113 Zr    c    0.501738    0.310395    0.106797     0.00000    1.000000    
    114 Zr    c    0.998128    0.254959    0.128148     0.00000    1.000000    
    115 Zr    c    0.488140    0.540937    0.129078     0.00000    1.000000    
    116 Zr    c    0.027471    0.574041    0.153251     0.00000    1.000000    
    117 Zr    c    0.522427    0.762788    0.112124     0.00000    1.000000    
    118 Zr    c    0.015822    0.770056    0.150519     0.00000    1.000000    
    119 Zr    c    0.497780    0.045033    0.120266     0.00000    1.000000    
    120 Zr    c    0.004124    0.026335    0.131597     0.00000    1.000000    
    121 Zr    c    0.264473    0.157765    0.323597     0.00000    1.000000    
    122 Zr    c    0.761374    0.154922    0.316037     0.00000    1.000000    
    123 Zr    c    0.260654    0.408095    0.321753     0.00000    1.000000    
    124 Zr    c    0.762554    0.409342    0.319625     0.00000    1.000000    
    125 Zr    c    0.265242    0.656073    0.341059     0.00000    1.000000    
    126 Zr    c    0.758144    0.652173    0.334049     0.00000    1.000000    
    127 Zr    c    0.267192    0.896571    0.342143     0.00000    1.000000    
    128 Zr    c    0.785575    0.915564    0.313258     0.00000    1.000000    
    129 Zr    c    0.342128    0.083611    0.552866     0.00000    1.000000    
    130 Zr    c    0.842813    0.103626    0.554635     0.00000    1.000000    
    131 Zr    c    0.316111    0.351160    0.558155     0.00000    1.000000    
    132 Zr    c    0.822668    0.347663    0.512989     0.00000    1.000000    
    133 Zr    c    0.301781    0.577119    0.557122     0.00000    1.000000    
    134 Zr    c    0.794459    0.591238    0.563858     0.00000    1.000000    
    135 Zr    c    0.308382    0.835455    0.572632     0.00000    1.000000    
    136 Zr    c    0.791759    0.819001    0.541427     0.00000    1.000000    
    137 Zr    c    0.269146    0.149650    0.115335     0.00000    1.000000    
    138 Zr    c    0.747162    0.160093    0.128894     0.00000    1.000000    
    139 Zr    c    0.198732    0.423432    0.109632     0.00000    1.000000    
    140 Zr    c    0.753183    0.426085    0.115556     0.00000    1.000000    
    141 Zr    c    0.244730    0.678126    0.113306     0.00000    1.000000    
    142 Zr    c    0.793693    0.652211    0.122133     0.00000    1.000000    
    143 Zr    c    0.237371    0.886620    0.118183     0.00000    1.000000    
    144 Zr    c    0.764098    0.907055    0.122176     0.00000    1.000000    
    145 O     c    0.962400    0.841282    0.871760     0.00000    1.000000    
    146 O     c    0.894779    0.880842    0.892404     0.00000    1.000000    
    147 O     c    0.649654    0.783995    0.950769     0.00000    1.000000    
    148 O     c    0.680413    0.756294    0.910571     0.00000    1.000000    
    149 O     c    0.471251    0.112423    0.777523     0.00000    1.000000    
    150 O     c    0.380436    0.093128    0.772070     0.00000    1.000000    
    151 O     c    0.960000    0.179984    0.891145     0.00000    1.000000    
    152 O     c    0.036052    0.154371    0.867489     0.00000    1.000000    
    153 O     c    0.123079    0.815687    0.605310     0.00000    1.000000    
    154 O     c    0.206499    0.750414    0.609848     0.00000    1.000000    
    155 O     c    0.201668    0.321879    0.922277     0.00000    1.000000    
    156 O     c    0.130555    0.279254    0.905583     0.00000    1.000000    
    157 O     c    0.262962    0.656250    0.009514     0.00000    1.000000    
    158 O     c    0.177856    0.673305    0.992889     0.00000    1.000000    
    159 O     c    0.776717    0.493489    0.926315     0.00000    1.000000    
    160 O     c    0.696436    0.527145    0.922544     0.00000    1.000000    
    161 O     c    0.464958    0.904133    0.696004     0.00000    1.000000    
    162 O     c    0.462423    0.911391    0.743432     0.00000    1.000000    
    163 O     c    0.308008    0.838742    0.848251     0.00000    1.000000    
    164 O     c    0.374474    0.895419    0.856474     0.00000    1.000000    
    165 O     c    0.783374    0.038532    0.759008     0.00000    1.000000    
    166 O     c    0.788798    0.103878    0.782875     0.00000    1.000000    
    167 O     c    0.737356    0.106554    0.945834     0.00000    1.000000    
    168 O     c    0.778344    0.061609    0.914628     0.00000    1.000000    
    169 O     c    0.039731    0.153704    0.633936     0.00000    1.000000    
    170 O     c    0.034356    0.087326    0.668281     0.00000    1.000000    
    171 O     c    0.851002    0.256388    0.983146     0.00000    1.000000    
    172 O     c    0.777590    0.206821    0.988097     0.00000    1.000000    
    173 O     c    0.462983    0.657814    0.835149     0.00000    1.000000    
    174 O     c    0.505224    0.616336    0.802578     0.00000    1.000000    
    175 O     c    0.177339    0.997368    0.716260     0.00000    1.000000    
    176 O     c    0.177826    0.034398    0.754806     0.00000    1.000000    
    177 O     c    0.568841    0.058035    0.864666     0.00000    1.000000    
    178 O     c    0.528537    0.987000    0.858838     0.00000    1.000000    
    179 O     c    0.885363    0.317599    0.920929     0.00000    1.000000    
    180 O     c    0.947237    0.373716    0.935992     0.00000    1.000000    
    181 O     c    0.680009    0.319427    0.869187     0.00000    1.000000    
    182 O     c    0.669025    0.395477    0.854262     0.00000    1.000000    
    183 O     c    0.987641    0.010276    0.974282     0.00000    1.000000    
    184 O     c    0.915977    0.960582    0.978030     0.00000    1.000000    
    185 O     c    0.108143    0.412506    0.734090     0.00000    1.000000    
    186 O     c    0.108145    0.470813    0.765080     0.00000    1.000000    
    187 O     c    0.453104    0.732860    0.704081     0.00000    1.000000    
    188 O     c    0.437266    0.748945    0.747640     0.00000    1.000000    
    189 O     c    0.880955    0.189729    0.689803     0.00000    1.000000    
    190 O     c    0.894693    0.264386    0.711707     0.00000    1.000000    
    191 O     c    0.107201    0.710407    0.866203     0.00000    1.000000    
    192 O     c    0.126285    0.658549    0.897160     0.00000    1.000000    
    193 O     c    0.345273    0.947702    0.081484     0.00000    1.000000    
    194 O     c    0.299236    0.845311    0.930487     0.00000    1.000000    
    195 O     c    0.369741    0.200732    0.829132     0.00000    1.000000    
    196 O     c    0.461705    0.192734    0.826548     0.00000    1.000000    
    197 O     c    0.208821    0.613141    0.821288     0.00000    1.000000    
    198 O     c    0.224644    0.574365    0.861255     0.00000    1.000000    
    199 O     c    0.728511    0.334457    0.699243     0.00000    1.000000    
    200 O     c    0.785175    0.319179    0.733054     0.00000    1.000000    
    201 O     c    0.166212    0.782363    0.097104     0.00000    1.000000    
    202 O     c    0.122555    0.685236    0.163914     0.00000    1.000000    
    203 O     c    0.380640    0.287262    0.729697     0.00000    1.000000    
    204 O     c    0.401913    0.257453    0.689475     0.00000    1.000000    
    205 O     c    0.254555    0.004942    0.943863     0.00000    1.000000    
    206 O     c    0.259804    0.051557    0.977978     0.00000    1.000000    
    207 O     c    0.712690    0.405065    0.960178     0.00000    1.000000    
    208 O     c    0.624985    0.434354    0.954889     0.00000    1.000000    
    209 O     c    0.699998    0.900928    0.571204     0.00000    1.000000    
    210 O     c    0.281242    0.158306    0.913370     0.00000    1.000000    
    211 O     c    0.309271    0.412513    0.748560     0.00000    1.000000    
    212 O     c    0.278173    0.482532    0.767470     0.00000    1.000000    
    213 O     c    0.911431    0.024946    0.598897     0.00000    1.000000    
    214 O     c    0.930417    0.942399    0.679454     0.00000    1.000000    
    215 O     c    0.463587    0.223496    0.918188     0.00000    1.000000    
    216 O     c    0.472113    0.210128    0.963272     0.00000    1.000000    
    217 O     c    0.358295    0.909151    0.925638     0.00000    1.000000    
    218 O     c    0.283986    0.175480    0.956506     0.00000    1.000000    
    219 O     c    0.760926    0.686885    0.736274     0.00000    1.000000    
    220 O     c    0.699643    0.741897    0.727438     0.00000    1.000000    
    221 O     c    0.684116    0.503108    0.765488     0.00000    1.000000    
    222 O     c    0.689804    0.521027    0.723354     0.00000    1.000000    
    223 O     c    0.210507    0.521320    0.703122     0.00000    1.000000    
    224 O     c    0.209421    0.447514    0.684589     0.00000    1.000000    
    225 O     c    0.054424    0.783285    0.689165     0.00000    1.000000    
    226 O     c    0.041917    0.755527    0.729335     0.00000    1.000000    
    227 O     c    0.056140    0.898637    0.761335     0.00000    1.000000    
    228 O     c    0.058913    0.826592    0.778065     0.00000    1.000000    
    229 O     c    0.840839    0.510770    0.775697     0.00000    1.000000    
    230 O     c    0.877655    0.549170    0.739299     0.00000    1.000000    
    231 O     c    0.714845    0.939792    0.686412     0.00000    1.000000    
    232 O     c    0.211891    0.909858    0.530111     0.00000    1.000000    
    233 O     c    0.454406    0.691644    0.922603     0.00000    1.000000    
    234 O     c    0.501454    0.687377    0.961499     0.00000    1.000000    
    235 O     c    0.851204    0.695893    0.782965     0.00000    1.000000    
    236 O     c    0.838060    0.765470    0.804546     0.00000    1.000000    
    237 O     c    0.271633    0.087269    0.605826     0.00000    1.000000    
    238 O     c    0.401066    0.954766    0.548153     0.00000    1.000000    
    239 O     c    0.163363    0.346689    0.978336     0.00000    1.000000    
    240 O     c    0.080046    0.314147    0.988707     0.00000    1.000000    
    241 O     c    0.705065    0.968927    0.977071     0.00000    1.000000    
    242 O     c    0.755316    0.951227    0.942089     0.00000    1.000000    
    243 O     c    0.046007    0.602339    0.819426     0.00000    1.000000    
    244 O     c    0.046177    0.556081    0.856027     0.00000    1.000000    
    245 O     c    0.751320    0.744144    0.987746     0.00000    1.000000    
    246 O     c    0.798929    0.708322    0.953568     0.00000    1.000000    
    247 O     c    0.384055    0.400808    0.862679     0.00000    1.000000    
    248 O     c    0.438929    0.412120    0.899918     0.00000    1.000000    
    249 O     c    0.150379    0.984092    0.866627     0.00000    1.000000    
    250 O     c    0.062767    0.960068    0.860582     0.00000    1.000000    
    251 O     c    0.282280    0.727463    0.695499     0.00000    1.000000    
    252 O     c    0.283527    0.741037    0.739546     0.00000    1.000000    
    253 O     c    0.393662    0.584359    0.923532     0.00000    1.000000    
    254 O     c    0.441614    0.556594    0.959501     0.00000    1.000000    
    255 O     c    0.068535    0.835195    0.995084     0.00000    1.000000    
    256 O     c    0.106358    0.897453    0.974296     0.00000    1.000000    
    257 O     c    0.629029    0.937894    0.661239     0.00000    1.000000    
    258 O     c    0.709694    0.711105    0.540402     0.00000    1.000000    
    259 O     c    0.737709    0.955325    0.794839     0.00000    1.000000    
    260 O     c    0.751831    0.990931    0.835476     0.00000    1.000000    
    261 O     c    0.157100    0.542871    0.983193     0.00000    1.000000    
    262 O     c    0.241315    0.528372    0.000567     0.00000    1.000000    
    263 O     c    0.802930    0.212144    0.845580     0.00000    1.000000    
    264 O     c    0.829970    0.264322    0.814881     0.00000    1.000000    
    265 O     c    0.300757    0.902150    0.770627     0.00000    1.000000    
    266 O     c    0.271003    0.969891    0.791775     0.00000    1.000000    
    267 O     c    0.633895    0.230614    0.707669     0.00000    1.000000    
    268 O     c    0.687221    0.192115    0.739869     0.00000    1.000000    
    269 O     c    0.312754    0.449990    0.065302     0.00000    1.000000    
    270 O     c    0.140072    0.572355    0.107489     0.00000    1.000000    
    271 O     c    0.512951    0.056324    0.927974     0.00000    1.000000    
    272 O     c    0.526673    0.092613    0.966247     0.00000    1.000000    
    273 O     c    0.951815    0.667562    0.900481     0.00000    1.000000    
    274 O     c    0.954285    0.738746    0.921283     0.00000    1.000000    
    275 O     c    0.039414    0.227792    0.769672     0.00000    1.000000    
    276 O     c    0.057637    0.154681    0.756020     0.00000    1.000000    
    277 O     c    0.203379    0.201511    0.724309     0.00000    1.000000    
    278 O     c    0.195591    0.271286    0.741770     0.00000    1.000000    
    279 O     c    0.651836    0.784446    0.807747     0.00000    1.000000    
    280 O     c    0.581395    0.825151    0.827852     0.00000    1.000000    
    281 O     c    0.995674    0.326105    0.830489     0.00000    1.000000    
    282 O     c    0.047525    0.391171    0.844993     0.00000    1.000000    
    283 O     c    0.475447    0.454786    0.811350     0.00000    1.000000    
    284 O     c    0.540522    0.469029    0.841741     0.00000    1.000000    
    285 O     c    0.639639    0.611496    0.816337     0.00000    1.000000    
    286 O     c    0.640410    0.665657    0.848632     0.00000    1.000000    
    287 O     c    0.945125    0.672608    0.108083     0.00000    1.000000    
    288 O     c    0.332725    0.897984    0.634729     0.00000    1.000000    
--------------------------------------------------------------------------------



********************************************************************************
*  Input for Configuration =   4                                               *
********************************************************************************

  Formula = S96Zr48O144                                                 

  Number of irreducible atoms/shells =     288


  Total number atoms/shells =     288

  Dimensionality = 3               :  Bulk   



  Cartesian lattice vectors (Angstroms) :

       13.276200    0.000000    0.000000
        0.000000   15.330000    0.000000
        0.000000    0.000000   27.849150

  Cell parameters (Angstroms/Degrees):

  a =      13.2762    alpha =  90.0000
  b =      15.3300    beta  =  90.0000
  c =      27.8492    gamma =  90.0000

  Initial cell volume =        5667.974644 Angs**3

  Temperature of configuration =   0.00     K 

  Pressure of configuration =         0.000 GPa 

  Fractional coordinates of asymmetric unit :

--------------------------------------------------------------------------------
   No.  Atomic       x           y          z         Charge      Occupancy
        Label      (Frac)      (Frac)     (Frac)        (e)         (Frac)  
--------------------------------------------------------------------------------
      1 S     c    0.096593    0.158024    0.382198     0.00000    1.000000    
      2 S     c    0.599007    0.152272    0.379720     0.00000    1.000000    
      3 S     c    0.099415    0.397530    0.378144     0.00000    1.000000    
      4 S     c    0.609660    0.408207    0.378495     0.00000    1.000000    
      5 S     c    0.097426    0.657590    0.389318     0.00000    1.000000    
      6 S     c    0.601044    0.666952    0.385927     0.00000    1.000000    
      7 S     c    0.112022    0.907885    0.399670     0.00000    1.000000    
      8 S     c    0.594335    0.902490    0.371251     0.00000    1.000000    
      9 S     c    0.116536    0.081049    0.553957     0.00000    1.000000    
     10 S     c    0.681000    0.123308    0.592607     0.00000    1.000000    
     11 S     c    0.156460    0.346789    0.614086     0.00000    1.000000    
     12 S     c    0.678282    0.331486    0.575413     0.00000    1.000000    
     13 S     c    0.140043    0.562837    0.606254     0.00000    1.000000    
     14 S     c    0.631074    0.554158    0.600938     0.00000    1.000000    
     15 S     c    0.981236    0.981979    0.639896     0.00000    1.000000    
     16 S     c    0.500053    0.837556    0.584018     0.00000    1.000000    
     17 S     c    0.098606    0.149674    0.179802     0.00000    1.000000    
     18 S     c    0.586666    0.136688    0.179291     0.00000    1.000000    
     19 S     c    0.067971    0.402702    0.175887     0.00000    1.000000    
     20 S     c    0.595939    0.417030    0.164878     0.00000    1.000000    
     21 S     c    0.026178    0.688433    0.231105     0.00000    1.000000    
     22 S     c    0.602562    0.652247    0.163963     0.00000    1.000000    
     23 S     c    0.083276    0.915470    0.191158     0.00000    1.000000    
     24 S     c    0.562077    0.904179    0.157602     0.00000    1.000000    
     25 S     c    0.329969    0.276822    0.379559     0.00000    1.000000    
     26 S     c    0.845344    0.288228    0.371435     0.00000    1.000000    
     27 S     c    0.333939    0.507153    0.384767     0.00000    1.000000    
     28 S     c    0.852085    0.528012    0.375956     0.00000    1.000000    
     29 S     c    0.351442    0.778513    0.391606     0.00000    1.000000    
     30 S     c    0.848777    0.785400    0.379723     0.00000    1.000000    
     31 S     c    0.335601    0.031745    0.392175     0.00000    1.000000    
     32 S     c    0.829894    0.042774    0.377000     0.00000    1.000000    
     33 S     c    0.431102    0.209231    0.594977     0.00000    1.000000    
     34 S     c    0.859175    0.244967    0.592174     0.00000    1.000000    
     35 S     c    0.414735    0.454719    0.600068     0.00000    1.000000    
     36 S     c    0.886577    0.445395    0.589121     0.00000    1.000000    
     37 S     c    0.421016    0.639707    0.614985     0.00000    1.000000    
     38 S     c    0.867901    0.726324    0.610606     0.00000    1.000000    
     39 S     c    0.398920    0.974278    0.654216     0.00000    1.000000    
     40 S     c    0.930720    0.989918    0.496728     0.00000    1.000000    
     41 S     c    0.347212    0.304005    0.162804     0.00000    1.000000    
     42 S     c    0.821955    0.286481    0.177070     0.00000    1.000000    
     43 S     c    0.318623    0.532648    0.165362     0.00000    1.000000    
     44 S     c    0.833835    0.523562    0.183027     0.00000    1.000000    
     45 S     c    0.363662    0.793079    0.170043     0.00000    1.000000    
     46 S     c    0.832686    0.777777    0.181450     0.00000    1.000000    
     47 S     c    0.330958    0.038258    0.166589     0.00000    1.000000    
     48 S     c    0.826482    0.042165    0.182361     0.00000    1.000000    
     49 S     c    0.183118    0.280997    0.275574     0.00000    1.000000    
[...]
     66 S     c    0.676253    0.287006    0.075677     0.00000    1.000000    
     67 S     c    0.008412    0.473568    0.062703     0.00000    1.000000    
     68 S     c    0.641967    0.535561    0.055943     0.00000    1.000000    
     69 S     c    0.356159    0.853935    0.040476     0.00000    1.000000    
     70 S     c    0.701326    0.762401    0.077335     0.00000    1.000000    
     71 S     c    0.146660    0.035247    0.080609     0.00000    1.000000    
     72 S     c    0.675330    0.042220    0.079313     0.00000    1.000000    
     73 S     c    0.433310    0.164625    0.283574     0.00000    1.000000    
     74 S     c    0.943620    0.129757    0.279280     0.00000    1.000000    
     75 S     c    0.434104    0.412216    0.284664     0.00000    1.000000    
     76 S     c    0.937190    0.400996    0.277404     0.00000    1.000000    
     77 S     c    0.415530    0.639455    0.291807     0.00000    1.000000    
     78 S     c    0.913615    0.642907    0.282428     0.00000    1.000000    
     79 S     c    0.407439    0.901785    0.285952     0.00000    1.000000    
     80 S     c    0.960301    0.897768    0.286696     0.00000    1.000000    
     81 S     c    0.570556    0.029754    0.498404     0.00000    1.000000    
     82 S     c    0.972767    0.130583    0.488991     0.00000    1.000000    
     83 S     c    0.485876    0.338718    0.493282     0.00000    1.000000    
     84 S     c    0.001116    0.326683    0.488639     0.00000    1.000000    
     85 S     c    0.476804    0.583809    0.498811     0.00000    1.000000    
     86 S     c    0.956743    0.563749    0.502332     0.00000    1.000000    
     87 S     c    0.469148    0.812095    0.506845     0.00000    1.000000    
     88 S     c    0.974989    0.816603    0.499955     0.00000    1.000000    
     89 S     c    0.410425    0.171569    0.059385     0.00000    1.000000    
     90 S     c    0.935121    0.142850    0.078411     0.00000    1.000000    
     91 S     c    0.424902    0.434620    0.058484     0.00000    1.000000    
     92 S     c    0.905594    0.379200    0.073795     0.00000    1.000000    
     93 S     c    0.433171    0.651344    0.065314     0.00000    1.000000    
     94 S     c    0.796216    0.559883    0.047708     0.00000    1.000000    
     95 S     c    0.501000    0.839311    0.021163     0.00000    1.000000    
     96 S     c    0.928013    0.893504    0.090494     0.00000    1.000000    
     97 Zr    c    0.502655    0.288044    0.340246     0.00000    1.000000    
     98 Zr    c    0.014235    0.266945    0.328306     0.00000    1.000000    
     99 Zr    c    0.495946    0.527639    0.341541     0.00000    1.000000    
    100 Zr    c    0.022239    0.516392    0.329550     0.00000    1.000000    
    101 Zr    c    0.520593    0.768587    0.325697     0.00000    1.000000    
    102 Zr    c    0.013929    0.770850    0.349728     0.00000    1.000000    
    103 Zr    c    0.499074    0.027206    0.338054     0.00000    1.000000    
    104 Zr    c    0.037896    0.034570    0.334787     0.00000    1.000000    
    105 Zr    c    0.592221    0.216999    0.526972     0.00000    1.000000    
    106 Zr    c    0.060235    0.227182    0.579679     0.00000    1.000000    
    107 Zr    c    0.577031    0.442900    0.539899     0.00000    1.000000    
    108 Zr    c    0.049904    0.454826    0.550277     0.00000    1.000000    
    109 Zr    c    0.548714    0.677756    0.557024     0.00000    1.000000    
    110 Zr    c    0.083907    0.707382    0.567814     0.00000    1.000000    
    111 Zr    c    0.571363    0.972644    0.589017     0.00000    1.000000    
    112 Zr    c    0.111575    0.950502    0.493715     0.00000    1.000000    
    113 Zr    c    0.501165    0.310832    0.107244     0.00000    1.000000    
    114 Zr    c    0.997169    0.255622    0.127586     0.00000    1.000000    
    115 Zr    c    0.488819    0.540918    0.128721     0.00000    1.000000    
    116 Zr    c    0.026249    0.573622    0.153404     0.00000    1.000000    
    117 Zr    c    0.524600    0.762626    0.112070     0.00000    1.000000    
    118 Zr    c    0.014672    0.771565    0.151225     0.00000    1.000000    
    119 Zr    c    0.497125    0.045331    0.119254     0.00000    1.000000    
    120 Zr    c    0.004246    0.026131    0.132873     0.00000    1.000000    
    121 Zr    c    0.264301    0.158461    0.323662     0.00000    1.000000    
    122 Zr    c    0.761298    0.155067    0.316783     0.00000    1.000000    
    123 Zr    c    0.261215    0.408360    0.321995     0.00000    1.000000    
    124 Zr    c    0.763238    0.408862    0.319960     0.00000    1.000000    
    125 Zr    c    0.265436    0.656324    0.340855     0.00000    1.000000    
    126 Zr    c    0.756115    0.652097    0.334634     0.00000    1.000000    
    127 Zr    c    0.268755    0.896503    0.341312     0.00000    1.000000    
    128 Zr    c    0.784865    0.915040    0.313530     0.00000    1.000000    
    129 Zr    c    0.342182    0.083367    0.553034     0.00000    1.000000    
    130 Zr    c    0.844199    0.103005    0.553670     0.00000    1.000000    
    131 Zr    c    0.317729    0.353076    0.557967     0.00000    1.000000    
    132 Zr    c    0.821477    0.348988    0.512961     0.00000    1.000000    
    133 Zr    c    0.302151    0.576025    0.556805     0.00000    1.000000    
    134 Zr    c    0.794004    0.590960    0.564090     0.00000    1.000000    
    135 Zr    c    0.306912    0.833811    0.570753     0.00000    1.000000    
    136 Zr    c    0.793719    0.816581    0.541890     0.00000    1.000000    
    137 Zr    c    0.268917    0.149625    0.117033     0.00000    1.000000    
    138 Zr    c    0.746829    0.158630    0.130557     0.00000    1.000000    
    139 Zr    c    0.197099    0.423415    0.109975     0.00000    1.000000    
    140 Zr    c    0.752828    0.428521    0.115413     0.00000    1.000000    
    141 Zr    c    0.242960    0.677845    0.113189     0.00000    1.000000    
    142 Zr    c    0.792975    0.653088    0.122144     0.00000    1.000000    
    143 Zr    c    0.236985    0.885470    0.117080     0.00000    1.000000    
    144 Zr    c    0.762681    0.908030    0.122656     0.00000    1.000000    
    145 O     c    0.967322    0.841601    0.869646     0.00000    1.000000    
    146 O     c    0.893970    0.877689    0.890845     0.00000    1.000000    
    147 O     c    0.653652    0.785515    0.948319     0.00000    1.000000    
    148 O     c    0.682182    0.756659    0.911059     0.00000    1.000000    
    149 O     c    0.471728    0.113918    0.777543     0.00000    1.000000    
    150 O     c    0.383852    0.092266    0.767997     0.00000    1.000000    
    151 O     c    0.963099    0.177033    0.890335     0.00000    1.000000    
    152 O     c    0.033798    0.151961    0.866619     0.00000    1.000000    
    153 O     c    0.121630    0.815679    0.603512     0.00000    1.000000    
    154 O     c    0.210140    0.746686    0.608206     0.00000    1.000000    
    155 O     c    0.199864    0.326997    0.922950     0.00000    1.000000    
    156 O     c    0.129911    0.278164    0.907115     0.00000    1.000000    
    157 O     c    0.263499    0.653855    0.011214     0.00000    1.000000    
    158 O     c    0.177713    0.669735    0.993692     0.00000    1.000000    
    159 O     c    0.777458    0.492399    0.925926     0.00000    1.000000    
    160 O     c    0.694389    0.527477    0.922247     0.00000    1.000000    
    161 O     c    0.465862    0.899924    0.696528     0.00000    1.000000    
    162 O     c    0.458672    0.905247    0.745528     0.00000    1.000000    
    163 O     c    0.303569    0.840265    0.848994     0.00000    1.000000    
    164 O     c    0.374192    0.894883    0.857239     0.00000    1.000000    
    165 O     c    0.784602    0.040511    0.757874     0.00000    1.000000    
    166 O     c    0.788793    0.105728    0.784133     0.00000    1.000000    
    167 O     c    0.741787    0.108963    0.943004     0.00000    1.000000    
    168 O     c    0.778129    0.059689    0.913865     0.00000    1.000000    
    169 O     c    0.040656    0.156309    0.634792     0.00000    1.000000    
    170 O     c    0.038748    0.088508    0.669802     0.00000    1.000000    
    171 O     c    0.849823    0.255598    0.984068     0.00000    1.000000    
    172 O     c    0.776022    0.205842    0.987732     0.00000    1.000000    
    173 O     c    0.464270    0.655577    0.834647     0.00000    1.000000    
    174 O     c    0.506595    0.615541    0.801375     0.00000    1.000000    
    175 O     c    0.176520    0.000588    0.717862     0.00000    1.000000    
    176 O     c    0.179491    0.035758    0.754788     0.00000    1.000000    
    177 O     c    0.562099    0.057808    0.865209     0.00000    1.000000    
    178 O     c    0.530375    0.984060    0.859969     0.00000    1.000000    
    179 O     c    0.884984    0.315064    0.920710     0.00000    1.000000    
    180 O     c    0.944101    0.370919    0.939218     0.00000    1.000000    
    181 O     c    0.678687    0.321190    0.868586     0.00000    1.000000    
    182 O     c    0.667133    0.399163    0.855955     0.00000    1.000000    
    183 O     c    0.991021    0.006849    0.975771     0.00000    1.000000    
    184 O     c    0.916044    0.958616    0.978967     0.00000    1.000000    
    185 O     c    0.102500    0.414999    0.734720     0.00000    1.000000    
    186 O     c    0.111660    0.472976    0.766343     0.00000    1.000000    
    187 O     c    0.453843    0.731019    0.703883     0.00000    1.000000    
    188 O     c    0.438036    0.752360    0.745324     0.00000    1.000000    
    189 O     c    0.879080    0.191820    0.687703     0.00000    1.000000    
    190 O     c    0.892817    0.260354    0.711624     0.00000    1.000000    
    191 O     c    0.107580    0.708662    0.863766     0.00000    1.000000    
    192 O     c    0.124539    0.661256    0.898079     0.00000    1.000000    
    193 O     c    0.347132    0.946367    0.082848     0.00000    1.000000    
    194 O     c    0.296632    0.844592    0.928936     0.00000    1.000000    
    195 O     c    0.368737    0.197556    0.829245     0.00000    1.000000    
    196 O     c    0.459561    0.193362    0.827775     0.00000    1.000000    
    197 O     c    0.203982    0.610551    0.824035     0.00000    1.000000    
    198 O     c    0.227170    0.575531    0.861960     0.00000    1.000000    
    199 O     c    0.729277    0.334858    0.697488     0.00000    1.000000    
    200 O     c    0.786195    0.313586    0.730522     0.00000    1.000000    
    201 O     c    0.166641    0.781841    0.096945     0.00000    1.000000    
    202 O     c    0.124015    0.678121    0.165626     0.00000    1.000000    
    203 O     c    0.380601    0.288404    0.729009     0.00000    1.000000    
    204 O     c    0.401799    0.258258    0.689474     0.00000    1.000000    
    205 O     c    0.254855    0.006090    0.943250     0.00000    1.000000    
    206 O     c    0.258220    0.050751    0.979798     0.00000    1.000000    
    207 O     c    0.708190    0.402809    0.960961     0.00000    1.000000    
    208 O     c    0.623495    0.437252    0.953626     0.00000    1.000000    
    209 O     c    0.696697    0.899963    0.571160     0.00000    1.000000    
    210 O     c    0.283144    0.156704    0.912218     0.00000    1.000000    
    211 O     c    0.305169    0.411671    0.748993     0.00000    1.000000    
    212 O     c    0.278243    0.479416    0.768274     0.00000    1.000000    
    213 O     c    0.904915    0.024889    0.600653     0.00000    1.000000    
    214 O     c    0.931825    0.942015    0.678413     0.00000    1.000000    
    215 O     c    0.460978    0.220097    0.917814     0.00000    1.000000    
    216 O     c    0.469675    0.207341    0.961995     0.00000    1.000000    
    217 O     c    0.356480    0.911573    0.923627     0.00000    1.000000    
    218 O     c    0.281746    0.170772    0.956017     0.00000    1.000000    
    219 O     c    0.763364    0.680173    0.736228     0.00000    1.000000    
    220 O     c    0.708340    0.745601    0.728236     0.00000    1.000000    
    221 O     c    0.686535    0.503217    0.766919     0.00000    1.000000    
    222 O     c    0.690735    0.525654    0.724658     0.00000    1.000000    
    223 O     c    0.213871    0.524199    0.703065     0.00000    1.000000    
    224 O     c    0.208054    0.450302    0.685125     0.00000    1.000000    
    225 O     c    0.052592    0.784191    0.689263     0.00000    1.000000    
    226 O     c    0.039621    0.752759    0.728133     0.00000    1.000000    
    227 O     c    0.059225    0.898856    0.762337     0.00000    1.000000    
    228 O     c    0.054330    0.826993    0.779669     0.00000    1.000000    
    229 O     c    0.840384    0.511850    0.776610     0.00000    1.000000    
    230 O     c    0.876119    0.545875    0.739728     0.00000    1.000000    
    231 O     c    0.713908    0.943193    0.685652     0.00000    1.000000    
    232 O     c    0.216703    0.914158    0.530404     0.00000    1.000000    
    233 O     c    0.455068    0.691633    0.922602     0.00000    1.000000    
    234 O     c    0.499400    0.691020    0.960439     0.00000    1.000000    
    235 O     c    0.851660    0.695643    0.782055     0.00000    1.000000    
    236 O     c    0.836614    0.767229    0.803060     0.00000    1.000000    
    237 O     c    0.270199    0.087074    0.605818     0.00000    1.000000    
    238 O     c    0.404482    0.960967    0.549364     0.00000    1.000000    
    239 O     c    0.167990    0.342064    0.978162     0.00000    1.000000    
    240 O     c    0.080537    0.316923    0.989335     0.00000    1.000000    
    241 O     c    0.702413    0.969184    0.976760     0.00000    1.000000    
    242 O     c    0.754989    0.950996    0.941892     0.00000    1.000000    
    243 O     c    0.046594    0.603913    0.820933     0.00000    1.000000    
    244 O     c    0.053924    0.553972    0.855899     0.00000    1.000000    
    245 O     c    0.753087    0.740796    0.989695     0.00000    1.000000    
    246 O     c    0.797184    0.706567    0.953358     0.00000    1.000000    
    247 O     c    0.380667    0.400225    0.862483     0.00000    1.000000    
    248 O     c    0.440158    0.409397    0.898433     0.00000    1.000000    
    249 O     c    0.155275    0.982286    0.865928     0.00000    1.000000    
    250 O     c    0.064363    0.961297    0.858585     0.00000    1.000000    
    251 O     c    0.281447    0.725134    0.696113     0.00000    1.000000    
    252 O     c    0.283454    0.736494    0.739973     0.00000    1.000000    
    253 O     c    0.396153    0.583515    0.923545     0.00000    1.000000    
    254 O     c    0.436753    0.555523    0.960665     0.00000    1.000000    
    255 O     c    0.074217    0.838166    0.996476     0.00000    1.000000    
    256 O     c    0.106887    0.901184    0.974066     0.00000    1.000000    
    257 O     c    0.627878    0.937859    0.662077     0.00000    1.000000    
    258 O     c    0.709032    0.712782    0.540603     0.00000    1.000000    
    259 O     c    0.740370    0.956421    0.794018     0.00000    1.000000    
    260 O     c    0.751259    0.991834    0.834975     0.00000    1.000000    
    261 O     c    0.153272    0.540857    0.981584     0.00000    1.000000    
    262 O     c    0.238431    0.528772    0.000389     0.00000    1.000000    
    263 O     c    0.800288    0.212034    0.843217     0.00000    1.000000    
    264 O     c    0.828885    0.265538    0.813460     0.00000    1.000000    
    265 O     c    0.308563    0.903866    0.771437     0.00000    1.000000    
    266 O     c    0.267323    0.966179    0.791933     0.00000    1.000000    
    267 O     c    0.630677    0.228280    0.708218     0.00000    1.000000    
    268 O     c    0.686022    0.193744    0.739451     0.00000    1.000000    
    269 O     c    0.312104    0.449472    0.064586     0.00000    1.000000    
    270 O     c    0.141085    0.574843    0.108152     0.00000    1.000000    
    271 O     c    0.511067    0.055311    0.929026     0.00000    1.000000    
    272 O     c    0.520900    0.092025    0.967115     0.00000    1.000000    
    273 O     c    0.950358    0.666401    0.900025     0.00000    1.000000    
    274 O     c    0.954604    0.735652    0.922141     0.00000    1.000000    
    275 O     c    0.035891    0.233827    0.768792     0.00000    1.000000    
    276 O     c    0.056901    0.158528    0.752452     0.00000    1.000000    
    277 O     c    0.200713    0.199303    0.724471     0.00000    1.000000    
    278 O     c    0.193102    0.271483    0.741927     0.00000    1.000000    
    279 O     c    0.647704    0.785263    0.806584     0.00000    1.000000    
    280 O     c    0.578836    0.823562    0.830208     0.00000    1.000000    
    281 O     c    0.999989    0.326208    0.831969     0.00000    1.000000    
    282 O     c    0.045634    0.392900    0.844997     0.00000    1.000000    
    283 O     c    0.476477    0.455265    0.810991     0.00000    1.000000    
    284 O     c    0.543613    0.467247    0.840056     0.00000    1.000000    
    285 O     c    0.642584    0.610512    0.817941     0.00000    1.000000    
    286 O     c    0.638424    0.663102    0.848953     0.00000    1.000000    
    287 O     c    0.946554    0.675704    0.109011     0.00000    1.000000    
    288 O     c    0.333861    0.900596    0.634744     0.00000    1.000000    
--------------------------------------------------------------------------------



********************************************************************************
*  General input information                                                   *
********************************************************************************

  Species output for all configurations : 

--------------------------------------------------------------------------------
  Species    Type    Atomic    Atomic    Charge       Radii (Angs)     Library
                     Number     Mass       (e)     Cova   Ionic  VDW   Symbol
--------------------------------------------------------------------------------
    S        Core       16      32.07   0.000000   1.020  0.000  1.700          
    Zr       Core       40      91.22   0.000000   1.560  0.000  2.330          
    O        Core        8      16.00   0.000000   0.730  0.000  1.360          
--------------------------------------------------------------------------------


  Lattice summation method               =    Ewald          (3-D)
                                         =    Parry          (2-D)
                                         =    Saunders et al (1-D)
  Accuracy factor for lattice sums       =   12.000


  Analytic derivatives to be used

  Time limit = Infinity

  Maximum range for interatomic potentials =    100000.000000 Angstroms

  ReaxFF forcefield to be used

  ReaxFF Coulomb cutoff =  10.0000 Ang
  ReaxFF VDW     cutoff =  10.0000 Ang
  ReaxFF H-bond  cutoff =   7.5000 Ang

  ReaxFF pairwise bond order       threshold = 0.00000001000000
  ReaxFF angle/torsion bond order  threshold = 0.00100000000000
  ReaxFF bond order double product threshold = 0.00000100000000
  ReaxFF bond order triple product threshold = 0.00000000100000
  ReaxFF hydrogen-bond bond order  threshold = 0.01000000000000


********************************************************************************
*  Output for configuration   1                                                *
********************************************************************************

