
Running Job 1 of 2 ZrOx.in
qchem ZrOx.in_63602.0 /tmp/5732462.priya/ZrOx.save/ 1
/usr/usc/qchem/4.4/bin/mpi/mpirun_qchem -machinefile /usr/usc/qchem/4.4/bin/mpi/machines -np 1 /usr/usc/qchem/4.4/exe/qcprog.exe ZrOx.in_63602.0 /tmp/5732462.priya/ZrOx.save/

Process 0 of 1 is on hpc3748.hpcc.usc.edu - thread support 0
initial socket setup ...start
initial socket setup ...done 
now start server 0 ... 
Check license passed

                  Welcome to Q-Chem
     A Quantum Leap Into The Future Of Chemistry


 Q-Chem 4.4, Q-Chem, Inc., Pleasanton, CA (2016)

 Y. Shao,  Z. Gan,  E. Epifanovsky,  A. T. B. Gilbert,  M. Wormit,  
 J. Kussmann,  A. W. Lange,  A. Behn,  J. Deng,  X. Feng,  D. Ghosh,  
 M. Goldey,  P. R. Horn,  L. D. Jacobson,  I. Kaliman,  F.Rob,  
 R. Z. Khaliullin,  T. Kus,  A. Landau,  J. Liu,  E. I. Proynov,  Y. M. Rhee,  
 R. M. Richard,  M. A. Rohrdanz,  R. P. Steele,  E. J. Sundstrom,  
 H. L. Woodcock III,  P. M. Zimmerman,  D. Zuev,  B. Albrecht,  E. Alguire,  
 B. Austin,  S. A. Baeppler,  G. J. O. Beran,  Y. A. Bernard,  E. Berquist,  
 K. Brandhorst,  K. B. Bravaya,  S. T. Brown,  D. Casanova,  C.-M. Chang,  
 Y. Chen,  S. H. Chien,  K. D. Closser,  M. P. Coons,  D. L. Crittenden,  
 S. Dasgupta,  M. Diedenhofen,  R. A. DiStasio Jr.,  H. Do,  A. D. Dutoi,  
 R. G. Edgar,  P.-T. Fang,  S. Fatehi,  Q. Feng,  L. Fusti-Molnar,  
 A. Ghysels,  A. Golubeva-Zadorozhnaya,  J. Gomes,  A. Gunina,  
 M. W. D. Hanson-Heine,  P. H. P. Harbach,  A. W. Hauser,  E. G. Hohenstein,  
 Z. C. Holden,  K. Hui,  T.-C. Jagau,  H. Ji,  B. Kaduk,  K. Khistyaev,  
 Jaehoon Kim,  Jihan Kim,  R. A. King,  P. Klunzinger,  D. Kosenkov,  
 T. Kowalczyk,  C. M. Krauter,  A. Kunitsa,  K. U. Lao,  A. Laurent,  
 K. V. Lawler,  D. Lefrancois,  S. Lehtola,  S. V. Levchenko,  C. Y. Lin,  
 Y.-S. Lin,  F. Liu,  E. Livshits,  R. C. Lochan,  A. Luenser,  P. Manohar,  
 S. F. Manzer,  S.-P. Mao,  Y. Mao,  N. Mardirossian,  A. V. Marenich,  
 L. A. Martinez-Martinez,  S. A. Maurer,  N. J. Mayhall,  J.-M. Mewes,  
 A. F. Morrison,  K. Nanda,  C. M. Oana,  R. Olivares-Amaya,  D. P. O'Neill,  
 J. A. Parkhill,  T. M. Perrine,  R. Peverati,  P. A. Pieniazek,  F. Plasser,  
 A. Prociuk,  D. R. Rehn,  E. Rosta,  N. J. Russ,  N. Sergueev,  
 S. M. Sharada,  S. Sharma,  D. W. Small,  A. Sodt,  T. Stauch,  T. Stein,  
 D. Stuck,  Y.-C. Su,  A. J. W. Thom,  T. Tsuchimochi,  L. Vogt,  O. Vydrov,  
 T. Wang,  M. A. Watson,  J. Wenzel,  A. White,  C. F. Williams,  
 V. Vanovschi,  S. Yeganeh,  S. R. Yost,  Z.-Q. You,  I. Y. Zhang,  X. Zhang,  
 Y. Zhao,  B. R. Brooks,  G. K. L. Chan,  D. M. Chipman,  C. J. Cramer,  
 W. A. Goddard III,  M. S. Gordon,  W. J. Hehre,  A. Klamt,  
 H. F. Schaefer III,  M. W. Schmidt,  C. D. Sherrill,  D. G. Truhlar,  
 A. Warshel,  X. Xu,  A. Aspuru-Guzik,  R. Baer,  A. T. Bell,  N. A. Besley,  
 J.-D. Chai,  A. Dreuw,  B. D. Dunietz,  T. R. Furlani,  S. R. Gwaltney,  
 C.-P. Hsu,  Y. Jung,  J. Kong,  D. S. Lambrecht,  W. Liang,  C. Ochsenfeld,  
 V. A. Rassolov,  L. V. Slipchenko,  J. E. Subotnik,  T. Van Voorhis,  
 J. M. Herbert,  A. I. Krylov,  P. M. W. Gill,  M. Head-Gordon

 Contributors to earlier versions of Q-Chem not listed above: 
 R. D. Adamson,  J. Baker,  E. F. C. Byrd,  A. K. Chakraborty,  C.-L. Cheng,  
 H. Dachsel,  R. J. Doerksen,  G. Hawkins,  A. Heyden,  S. Hirata,  
 G. Kedziora,  F. J. Keil,  C. Kelley,  P. P. Korambath,  W. Kurlancheek,  
 A. M. Lee,  M. S. Lee,  D. Liotard,  I. Lotan,  P. E. Maslen,  N. Nair,  
 D. Neuhauser,  R. Olson,  B. Peters,  J. Ritchie,  N. E. Schultz,  
 N. Shenvi,  A. C. Simmonett,  K. S. Thanthiriwatte,  Q. Wu,  W. Zhang

 Please cite Q-Chem as follows:
 Y. Shao et al., Mol. Phys. 113, 184-215 (2015)
 DOI: 10.1080/00268976.2014.952696

 Q-Chem 4.4.1 for Intel X86 Linux

 Parts of Q-Chem use Armadillo 5.200.1 (Boston Tea Smuggler).
 http://arma.sourceforge.net/

 Q-Chem begins on Fri Jan 17 18:55:46 2020  

Host: 
0

     Scratch files written to /tmp/5732462.priya/ZrOx.save//
 Jul2716 11668_ 21447  21445 5558   
 Parallel job on  1  processors
Processing $rem in /usr/usc/qchem/4.4/config/preferences.
 MEM_TOTAL  2000 

Checking the input file for inconsistencies... 	...done.

--------------------------------------------------------------
User input:
--------------------------------------------------------------
$comment
--------------------------------------------------------
A SINGLE POINT DFT CALCULATION WITH BASIS SET PROJECTION
--------------------------------------------------------
$end

$molecule
0 1
Zr 1.44181 0.00000 0.00000
O 2.42374 1.39204 0.00000
O 2.42387 -1.39195 0.00000
O 0.00002 -0.00004 -1.27956
O 0.00002 -0.00004 1.27956
Zr -1.44179 0.00000 0.00000
O -2.42388 -1.39193 0.00000
O -2.42372 1.39204 0.00000
$end

$rem
JOBTYPE   SP
METHOD   B3LYP
BASIS   GEN
ECP   GEN
MAX_SCF_CYCLES   200
SCF_CONVERGENCE 8
SCF_PRINT 1
PDB_PRINT 2
THRESH 14
VARTHRESH 14
INCDFT FALSE
SYMMETRY False
Sym_ignore True
SCF_ALGORITHM GDM
XC_GRID 000128000302
DFT_D           EMPIRICAL_GRIMME3
DFT_D3_S6       1000
DFT_D3_RS6     1261
DFT_D3_S8      1703
DFT_D3_3BODY    FALSE
$end

$basis
O
6-31+G**
****
S
6-31+G**
****
Zr
LanL2DZ
****
$end

$ecp
Zr
LanL2DZ
****
$end

--------------------------------------------------------------
 ----------------------------------------------------------------
             Standard Nuclear Orientation (Angstroms)
    I     Atom           X                Y                Z
 ----------------------------------------------------------------
    1      Zr      1.4418100000     0.0000000000     0.0000000000
    2      O       2.4237400000     1.3920400000     0.0000000000
    3      O       2.4238700000    -1.3919500000     0.0000000000
    4      O       0.0000200000    -0.0000400000    -1.2795600000
    5      O       0.0000200000    -0.0000400000     1.2795600000
    6      Zr     -1.4417900000     0.0000000000     0.0000000000
    7      O      -2.4238800000    -1.3919300000     0.0000000000
    8      O      -2.4237200000     1.3920400000     0.0000000000
 ----------------------------------------------------------------
 Nuclear Repulsion Energy =   452.3673751836 hartrees
 There are       36 alpha and       36 beta electrons

 Q-Chem warning in module /home/scratch/svnadmin/11668_zgan/qchem/forms1/BasisType.C, line 1419:

 Setting pure/cartesian flag to 2111 for general basis


 Requested basis set is non-standard
 There are 46 shells and 152 basis functions

 Total QAlloc Memory Limit   2000 MB
 Mega-Array Size        61 MB
 MEM_STATIC part        62 MB

                       Distance Matrix (Angstroms)
             Zr(  1)   O (  2)   O (  3)   O (  4)   O (  5)   Zr(  6)
   O (  2)  1.703515
   O (  3)  1.703516  2.783990
   O (  4)  1.927701  3.074017  3.074042
   O (  5)  1.927701  3.074017  3.074042  2.559120
   Zr(  6)  2.883600  4.108540  4.108631  1.927716  1.927716
   O (  7)  4.108653  5.590162  4.847750  3.074073  3.074073  1.703517
   O (  8)  4.108540  4.847460  5.590146  3.074033  3.074033  1.703515
             O (  7)
   O (  8)  2.783970
 
 A cutoff of  1.0D-14 yielded   1034 shell pairs
 There are     11443 function pairs (     12984 Cartesian)
 
 -------------------------------------------------------
 OpenMP Integral Computing Module                       
 Release: version 1.0, May 2013, Q-Chem Inc. Pittsburgh 
 -------------------------------------------------------
 Integral Job Info:
 Integral job number is                      11
 Integral operator is                         1
 short-range coefficients                     0
 long-range coefficients              100000000
 Omega coefficients                           0
 if combine SR and LR in K                    0
 Integral screening is                        0
 Integral computing path is                   2
 max size of driver memory is            800000
 size of driver memory is                593474
 size of scratch memory is             11771240
 max col of scratch BK array               1296
 max len of scratch array in speh3          155
 max len of scratch index in speh4           18
 max int batch size is                      520
 min int batch size is                       52
 fixed nKL is                                52
 max L of basis functions is                  2
 order of int derivative is                   0
 number of shells is                         46
 number of basis is                         162
 number of cartesian basis is               162
 number of contracted shell pairs          1034
 number of primitive shell pairs           4500
 maxK2 (contraction) of shell pair           36
 max number of K2 of shell pair               1
 max number of CS2 of shell pair             96
 max number of PS2 of shell pair            492
 mem total for path MDJ                   46168
 -------------------------------------------------------
 Requested basis set is non-standard
 Compound shells will be simplified
 There are 64 shells and 152 basis functions
 A cutoff of  1.0D-14 yielded   2005 shell pairs
 There are     11389 function pairs (     12930 Cartesian)
 Smallest overlap matrix eigenvalue = 4.08E-04

 Scale SEOQF with 1.000000e-01/1.000000e-01/1.000000e-01

 Standard Electronic Orientation quadrupole field applied
 Nucleus-field energy     =     0.0000000101 hartrees
 Guess MOs from core Hamiltonian diagonalization
 A restricted hybrid HF-DFT SCF calculation will be
 performed using Geometric Direct Minimization
 Exchange:     0.2000 Hartree-Fock + 0.0800 Slater + 0.7200 B88
 Correlation:  0.1900 VWN1RPA + 0.8100 LYP
 Using Euler-Maclaurin-Lebedev (128,302) quadrature formula
 Dispersion:   Grimme D3
 SCF converges when RMS gradient is below 1.0E-08
 Maximum number of minimization steps = 200
 using 12 threads for integral computing 
 -------------------------------------------------------
 OpenMP BLAS3 based DFT computing Module                
 Release: version 1.0, May 2013, Q-Chem Inc. Pittsburgh 
 -------------------------------------------------------
 
   ------------------- Entering Geometric Direct Minimization ------------------
   GDM:         diagonal hessian shift is      0.000000000000000E+000
   GDM::PreWSS: input subspace size is                  1
   GDM::PreWSS: working subspace size set to            1
   GDM::PrEWSS: # of linearly dependent vectors =            0
   GDM::PrEWSS: Max dev from orthonormality =   4.440892098500626E-016
   GDM::BFGS:   lowest Hinv e-value     1.00000000000000     
   GDM::BFGS:   highest Hinv e-value    1.00000000000000     
   GDM::      : max scaling in EWCs is          1.41421356237309     
   GDM::      : max rotation in step is       -0.110459200076299     
   GDM::        grad.step =   -2.59155037134087     
   ------- Leaving GDM -- hopefully with a step in the right direction! --------
 
 ---------------------------------------
  Cycle       Energy        RMS Gradient
 ---------------------------------------
    1    -480.8410337072      2.08E+00  Gap = 0.00 eV  Descent step
 
   ------------------- Entering Geometric Direct Minimization ------------------
   GDM::trust : actual energy change is        -5.09287426177599     
   GDM::trust : predicted energy change was   -0.163350000000000     
   GDM::trust : updated trust radius is        0.330000000000000     
   GDM:         diagonal hessian shift is      0.000000000000000E+000
   GDM::PreWSS: input subspace size is                  2
   GDM::PreWSS: working subspace size set to            2
   GDM::PrEWSS: # of linearly dependent vectors =            0
   GDM::PrEWSS: Max dev from orthonormality =   2.790823128151487E-014
   GDM::BFGS:   lowest Hinv e-value    0.528054622956379     
   GDM::BFGS:   highest Hinv e-value    2.45477864479584     
   GDM::      : max scaling in EWCs is          1.41421356237309     
   GDM::      : max rotation in step is        0.108957831647533     
   GDM::        grad.step =   -2.49671105728332     
   ------- Leaving GDM -- hopefully with a step in the right direction! --------
 
    2    -485.9339079690      1.92E+00  Gap = 0.00 eV  Descent step
 
   ------------------- Entering Geometric Direct Minimization ------------------
   GDM::trust : actual energy change is        -4.88706109337841     
   GDM::trust : predicted energy change was   -0.138556334936382     
   GDM::trust : updated trust radius is        0.330000000000000     
   GDM:         diagonal hessian shift is      0.000000000000000E+000
   GDM::PreWSS: input subspace size is                  3
   GDM::PreWSS: working subspace size set to            3
   GDM::PrEWSS: # of linearly dependent vectors =            0
   GDM::PrEWSS: Max dev from orthonormality =   1.768842017302319E-012
   GDM::BFGS:   lowest Hinv e-value    0.418561051701162     
   GDM::BFGS:   highest Hinv e-value    1.74237767501696     
   GDM::      : max scaling in EWCs is          1.41421356237309     
   GDM::      : max rotation in step is       -0.102549160786417     
   GDM::        grad.step =   -2.41958898123022     
   ------- Leaving GDM -- hopefully with a step in the right direction! --------
 
    3    -490.8209690624      1.68E+00  Gap = 0.00 eV  Descent step
 
   ------------------- Entering Geometric Direct Minimization ------------------
   GDM::trust : actual energy change is        -4.70163973956289     
   GDM::trust : predicted energy change was   -0.146883001064827     
   GDM::trust : updated trust radius is        0.330000000000000     
   GDM:         diagonal hessian shift is      0.000000000000000E+000
   GDM::PreWSS: input subspace size is                  4
   GDM::PreWSS: working subspace size set to            4
   GDM::PrEWSS: # of linearly dependent vectors =            0
   GDM::PrEWSS: Max dev from orthonormality =   2.083099318039849E-012
   GDM::BFGS:   lowest Hinv e-value    0.367318453292536     
   GDM::BFGS:   highest Hinv e-value    1.60063751307616     
   GDM::      : max scaling in EWCs is          1.41421356237309     
   GDM::      : max rotation in step is       -0.111399945501930     
   GDM::        grad.step =   -2.29279930985379     
   ------- Leaving GDM -- hopefully with a step in the right direction! --------
 
    4    -495.5226088019      1.95E+00  Gap = 0.00 eV  Descent step
 
   ------------------- Entering Geometric Direct Minimization ------------------
   GDM::trust : actual energy change is        -4.44412742828013     
   GDM::trust : predicted energy change was   -0.154602169836957     
   GDM::trust : updated trust radius is        0.330000000000000     
   GDM:         diagonal hessian shift is      0.000000000000000E+000
   GDM::PreWSS: input subspace size is                  5
   GDM::PreWSS: working subspace size set to            5
   GDM::PrEWSS: # of linearly dependent vectors =            0
   GDM::PrEWSS: Max dev from orthonormality =   1.893355611182201E-011
   GDM::BFGS:   lowest Hinv e-value    0.325291166831809     
   GDM::BFGS:   highest Hinv e-value    1.71772102838886     
   GDM::      : max scaling in EWCs is          1.41421356237309     
   GDM::      : max rotation in step is       -0.147504336210620     
   GDM::        grad.step =   -2.34562383116157     
   ------- Leaving GDM -- hopefully with a step in the right direction! --------
 
    5    -499.9667362302      2.25E+00  Gap = 0.00 eV  Descent step
 
   ------------------- Entering Geometric Direct Minimization ------------------
   GDM::trust : actual energy change is        -4.51261906624330     
   GDM::trust : predicted energy change was   -0.159643465563888     
   GDM::trust : updated trust radius is        0.330000000000000     
   GDM:         diagonal hessian shift is      0.000000000000000E+000
   GDM::PreWSS: input subspace size is                  6
   GDM::PreWSS: working subspace size set to            6
   GDM::PrEWSS: # of linearly dependent vectors =            0
   GDM::PrEWSS: Max dev from orthonormality =   1.800106244620459E-011
   GDM::BFGS:   lowest Hinv e-value    0.295990739168414     
   GDM::BFGS:   highest Hinv e-value    1.79063039859917     
   GDM::      : max scaling in EWCs is          1.41421356237309     
   GDM::      : max rotation in step is        0.154891694509868     
   GDM::        grad.step =   -2.37088232342676     
   ------- Leaving GDM -- hopefully with a step in the right direction! --------
 
    6    -504.4793552965      2.38E+00  Gap = 0.00 eV  Descent step
 
   ------------------- Entering Geometric Direct Minimization ------------------
   GDM::trust : actual energy change is        -4.46303378117341     
   GDM::trust : predicted energy change was   -0.181798500046264     
   GDM::trust : updated trust radius is        0.330000000000000     
   GDM:         diagonal hessian shift is      0.000000000000000E+000
   GDM::PreWSS: input subspace size is                  7
   GDM::PreWSS: working subspace size set to            7
   GDM::PrEWSS: # of linearly dependent vectors =            0
   GDM::PrEWSS: Max dev from orthonormality =   6.615148706590190E-011
   GDM::BFGS:   lowest Hinv e-value    0.257752018035244     
   GDM::BFGS:   highest Hinv e-value    1.84463995979776     
   GDM::      : max scaling in EWCs is          2.82842712474619     
   GDM::      : max rotation in step is        0.366750480558956     
   GDM::        grad.step =   -2.16829263331627     
   ------- Leaving GDM -- hopefully with a step in the right direction! --------
 
    7    -508.9423890776      3.12E+00  Gap = 0.00 eV  Descent step
 
   ------------------- Entering Geometric Direct Minimization ------------------
   GDM::trust : actual energy change is        -4.02219754257874     
   GDM::trust : predicted energy change was   -0.176557891955929     
   GDM::trust : updated trust radius is        0.330000000000000     
   GDM:         diagonal hessian shift is      0.000000000000000E+000
   GDM::PreWSS: input subspace size is                  8
   GDM::PreWSS: working subspace size set to            8
   GDM::PrEWSS: # of linearly dependent vectors =            0
   GDM::PrEWSS: Max dev from orthonormality =   2.638853024983234E-011
   GDM::BFGS:   lowest Hinv e-value    0.232615791288177     
   GDM::BFGS:   highest Hinv e-value    1.97496807000664     
   GDM::      : max scaling in EWCs is          2.82842712474619     
   GDM::      : max rotation in step is       -0.179260185144305     
   GDM::        grad.step =   -1.72911172351993     
   ------- Leaving GDM -- hopefully with a step in the right direction! --------
 
    8    -512.9645866202      1.73E+00  Gap = 0.00 eV  Descent step
 
   ------------------- Entering Geometric Direct Minimization ------------------
   GDM::trust : actual energy change is        -3.25010584450229     
   GDM::trust : predicted energy change was   -0.184959797474655     
   GDM::trust : updated trust radius is        0.330000000000000     
   GDM:         diagonal hessian shift is      0.000000000000000E+000
   GDM::PreWSS: input subspace size is                  9
   GDM::PreWSS: working subspace size set to            9
   GDM::PrEWSS: # of linearly dependent vectors =            0
   GDM::PrEWSS: Max dev from orthonormality =   9.461260247478620E-011
   GDM::BFGS:   lowest Hinv e-value    0.219834828294966     
   GDM::BFGS:   highest Hinv e-value    2.07939319324132     
   GDM::      : max scaling in EWCs is          2.82842712474619     
   GDM::      : max rotation in step is        0.572980829712306     
   GDM::        grad.step =   -1.92971655721292     
   ------- Leaving GDM -- hopefully with a step in the right direction! --------
 
    9    -516.2146924647      3.60E+00  Gap = 0.00 eV  Descent step
 
   ------------------- Entering Geometric Direct Minimization ------------------
   GDM::trust : actual energy change is        -3.34065513407961     
   GDM::trust : predicted energy change was   -0.179160119811568     
   GDM::trust : updated trust radius is        0.330000000000000     
   GDM:         diagonal hessian shift is      0.000000000000000E+000
   GDM::PreWSS: input subspace size is                 10
   GDM::PreWSS: working subspace size set to           10
   GDM::PrEWSS: # of linearly dependent vectors =            0
   GDM::PrEWSS: Max dev from orthonormality =   1.383378828156978E-011
   GDM::BFGS:   lowest Hinv e-value    0.195188087024132     
   GDM::BFGS:   highest Hinv e-value    2.45703713158108     
   GDM::      : max scaling in EWCs is          2.82842712474619     
   GDM::      : max rotation in step is        0.234043389999484     
   GDM::        grad.step =   -1.39066636633665     
   ------- Leaving GDM -- hopefully with a step in the right direction! --------
 
   10    -519.5553475988      1.21E+00  Gap = 0.00 eV  Descent step
 
   ------------------- Entering Geometric Direct Minimization ------------------
   GDM::trust : actual energy change is        -2.60777148100772     
   GDM::trust : predicted energy change was   -0.167077095530479     
   GDM::trust : updated trust radius is        0.330000000000000     
   GDM:         diagonal hessian shift is      0.000000000000000E+000
   GDM::PreWSS: input subspace size is                 11
   GDM::PreWSS: working subspace size set to           11
   GDM::PrEWSS: # of linearly dependent vectors =            0
   GDM::PrEWSS: Max dev from orthonormality =   8.036648430076454E-011
   GDM::BFGS:   lowest Hinv e-value    0.170476568336782     
   GDM::BFGS:   highest Hinv e-value    2.73078577555182     
   GDM::      : max scaling in EWCs is          2.82842712474619     
   GDM::      : max rotation in step is       -0.139128339079625     
   GDM::        grad.step =   -1.29634750428953     
   ------- Leaving GDM -- hopefully with a step in the right direction! --------
 
   11    -522.1631190798      1.31E+00  Gap = 0.00 eV  Descent step
 
   ------------------- Entering Geometric Direct Minimization ------------------
   GDM::trust : actual energy change is        -2.54095194199090     
   GDM::trust : predicted energy change was   -0.150541935275855     
   GDM::trust : updated trust radius is        0.330000000000000     
   GDM:         diagonal hessian shift is      0.000000000000000E+000
   GDM::PreWSS: input subspace size is                 12
   GDM::PreWSS: working subspace size set to           12
   GDM::PrEWSS: # of linearly dependent vectors =            0
   GDM::PrEWSS: Max dev from orthonormality =   2.546066829589577E-011
   GDM::BFGS:   lowest Hinv e-value    0.120568286290165     
   GDM::BFGS:   highest Hinv e-value    3.21332941123125     
   GDM::      : max scaling in EWCs is          2.82842712474619     
   GDM::      : max rotation in step is       -0.366387375238574     
   GDM::        grad.step =   -1.84515262477999     
   ------- Leaving GDM -- hopefully with a step in the right direction! --------
 
   12    -524.7040710218      2.19E+00  Gap = 0.00 eV  Descent step
 
   ------------------- Entering Geometric Direct Minimization ------------------
   GDM::trust : actual energy change is        -3.17040792653859     
   GDM::trust : predicted energy change was   -0.171316118646611     
   GDM::trust : updated trust radius is        0.330000000000000     
   GDM:         diagonal hessian shift is      0.000000000000000E+000
   GDM::PreWSS: input subspace size is                 13
   GDM::PreWSS: working subspace size set to           13
   GDM::PrEWSS: # of linearly dependent vectors =            0
   GDM::PrEWSS: Max dev from orthonormality =   6.173179675772467E-011
   GDM::BFGS:   lowest Hinv e-value    0.155003552895506     
   GDM::BFGS:   highest Hinv e-value    3.37437087819511     
   GDM::      : max scaling in EWCs is          2.82842712474619     
   GDM::      : max rotation in step is       -0.338549303007626     
   GDM::        grad.step =   -1.33400365312551     
   ------- Leaving GDM -- hopefully with a step in the right direction! --------
 
   13    -527.8744789483      1.47E+00  Gap = 0.00 eV  Descent step
 
   ------------------- Entering Geometric Direct Minimization ------------------
   GDM::trust : actual energy change is        -2.48433036451524     
   GDM::trust : predicted energy change was   -0.164114447030453     
   GDM::trust : updated trust radius is        0.330000000000000     
   GDM:         diagonal hessian shift is      0.000000000000000E+000
   GDM::PreWSS: input subspace size is                 14
   GDM::PreWSS: working subspace size set to           14
   GDM::PrEWSS: # of linearly dependent vectors =            0
   GDM::PrEWSS: Max dev from orthonormality =   5.027083610498195E-011
   GDM::BFGS:   lowest Hinv e-value    0.148590059998623     
   GDM::BFGS:   highest Hinv e-value    4.22445897562470     
   GDM::      : max scaling in EWCs is          2.82842712474619     
   GDM::      : max rotation in step is        0.380379569645276     
   GDM::        grad.step =   -1.10900957426168     
   ------- Leaving GDM -- hopefully with a step in the right direction! --------
 
   14    -530.3588093128      1.37E+00  Gap = 0.00 eV  Descent step
 
   ------------------- Entering Geometric Direct Minimization ------------------
   GDM::trust : actual energy change is        -2.01388709703542     
   GDM::trust : predicted energy change was   -0.161053277941339     
   GDM::trust : updated trust radius is        0.330000000000000     
   GDM:         diagonal hessian shift is      0.000000000000000E+000
   GDM::PreWSS: input subspace size is                 15
   GDM::PreWSS: working subspace size set to           15
   GDM::PrEWSS: # of linearly dependent vectors =            0
   GDM::PrEWSS: Max dev from orthonormality =   9.660174743464367E-011
   GDM::BFGS:   lowest Hinv e-value    0.131096157225232     
   GDM::BFGS:   highest Hinv e-value    5.14522813442833     
   GDM::      : max scaling in EWCs is          2.82842712474619     
   GDM::      : max rotation in step is       -0.295460556628266     
   GDM::        grad.step =   -1.27231163111879     
   ------- Leaving GDM -- hopefully with a step in the right direction! --------
 
   15    -532.3726964099      1.62E+00  Gap = 0.00 eV  Descent step
 
   ------------------- Entering Geometric Direct Minimization ------------------
   GDM::trust : actual energy change is        -2.43029703865727     
   GDM::trust : predicted energy change was   -0.167558398845035     
   GDM::trust : updated trust radius is        0.330000000000000     
   GDM:         diagonal hessian shift is      0.000000000000000E+000
   GDM::PreWSS: input subspace size is                 16
   GDM::PreWSS: working subspace size set to           16
   GDM::PrEWSS: # of linearly dependent vectors =            0
   GDM::PrEWSS: Max dev from orthonormality =   1.176330387264723E-011
   GDM::BFGS:   lowest Hinv e-value    0.128484421689367     
   GDM::BFGS:   highest Hinv e-value    6.16405203601529     
   GDM::      : max scaling in EWCs is          2.82842712474619     
   GDM::      : max rotation in step is       -0.243952154209426     
   GDM::        grad.step =  -0.898302007009669     
   ------- Leaving GDM -- hopefully with a step in the right direction! --------
 
   16    -534.8029934485      1.09E+00  Gap = 0.00 eV  Descent step
 
   ------------------- Entering Geometric Direct Minimization ------------------
   GDM::trust : actual energy change is        -1.65863853964584     
   GDM::trust : predicted energy change was   -0.149792070239904     
   GDM::trust : updated trust radius is        0.330000000000000     
   GDM:         diagonal hessian shift is      0.000000000000000E+000
   GDM::PreWSS: input subspace size is                 17
   GDM::PreWSS: working subspace size set to           17
   GDM::PrEWSS: # of linearly dependent vectors =            0
   GDM::PrEWSS: Max dev from orthonormality =   6.658034540363289E-011
   GDM::BFGS:   lowest Hinv e-value    0.115254268315225     
   GDM::BFGS:   highest Hinv e-value    6.96725053933028     
   GDM::      : max scaling in EWCs is          2.82842712474619     
   GDM::      : max rotation in step is       -0.166870998629255     
   GDM::        grad.step =  -0.707111224092394     
   ------- Leaving GDM -- hopefully with a step in the right direction! --------
 
   17    -536.4616319882      7.94E-01  Gap = 0.00 eV  Descent step
 
   ------------------- Entering Geometric Direct Minimization ------------------
   GDM::trust : actual energy change is        -1.34754729897975     
   GDM::trust : predicted energy change was   -0.147749733281977     
   GDM::trust : updated trust radius is        0.330000000000000     
   GDM:         diagonal hessian shift is      0.000000000000000E+000
   GDM::PreWSS: input subspace size is                 18
   GDM::PreWSS: working subspace size set to           18
   GDM::PrEWSS: # of linearly dependent vectors =            0
   GDM::PrEWSS: Max dev from orthonormality =   1.019038325944521E-010
   GDM::BFGS:   lowest Hinv e-value    0.115640407646221     
   GDM::BFGS:   highest Hinv e-value    7.48937078913969     
   GDM::      : max scaling in EWCs is          2.82842712474619     
   GDM::      : max rotation in step is       -0.695872727705686     
   GDM::        grad.step =  -0.858405924490932     
   ------- Leaving GDM -- hopefully with a step in the right direction! --------
 
   18    -537.8091792872      1.94E+00  Gap = 0.00 eV  Descent step
 
   ------------------- Entering Geometric Direct Minimization ------------------
   GDM::trust : actual energy change is        -1.38289239443611     
   GDM::trust : predicted energy change was   -0.152351017636460     
   GDM::trust : updated trust radius is        0.330000000000000     
   GDM:         diagonal hessian shift is      0.000000000000000E+000
   GDM::PreWSS: input subspace size is                 19
   GDM::PreWSS: working subspace size set to           18
   GDM::PrEWSS: # of linearly dependent vectors =            0
   GDM::PrEWSS: Max dev from orthonormality =   3.999060804726895E-011
   GDM::BFGS:   lowest Hinv e-value    0.102369114758079     
   GDM::BFGS:   highest Hinv e-value    7.74364517299565     
   GDM::      : max scaling in EWCs is          2.82842712474619     
   GDM::      : max rotation in step is       -0.322366786270249     
   GDM::        grad.step =  -0.629477757394856     
   ------- Leaving GDM -- hopefully with a step in the right direction! --------
 
   19    -539.1920716816      8.81E-01  Gap = 0.00 eV  Descent step
 
   ------------------- Entering Geometric Direct Minimization ------------------
   GDM::trust : actual energy change is        -1.21785949143418     
   GDM::trust : predicted energy change was   -0.182811149738849     
   GDM::trust : updated trust radius is        0.330000000000000     
   GDM:         diagonal hessian shift is      0.000000000000000E+000
   GDM::PreWSS: input subspace size is                 19
   GDM::PreWSS: working subspace size set to           18
   GDM::PrEWSS: # of linearly dependent vectors =            0
   GDM::PrEWSS: Max dev from orthonormality =   2.753413469447352E-011
   GDM::BFGS:   lowest Hinv e-value    0.132649848144030     
   GDM::BFGS:   highest Hinv e-value    8.00770608690728     
   GDM::      : max scaling in EWCs is          2.82842712474619     
   GDM::      : max rotation in step is        0.712404194810718     
   GDM::        grad.step =  -0.790431249875941     
   ------- Leaving GDM -- hopefully with a step in the right direction! --------
 
   20    -540.4099311730      1.83E+00  Gap = 0.00 eV  Descent step
 
   ------------------- Entering Geometric Direct Minimization ------------------
   GDM::trust : actual energy change is        -1.14566921838491     
   GDM::trust : predicted energy change was   -0.166524396647605     
   GDM::trust : updated trust radius is        0.330000000000000     
   GDM:         diagonal hessian shift is      0.000000000000000E+000
   GDM::PreWSS: input subspace size is                 19
   GDM::PreWSS: working subspace size set to           18
   GDM::PrEWSS: # of linearly dependent vectors =            0
   GDM::PrEWSS: Max dev from orthonormality =   5.700263178143317E-012
   GDM::BFGS:   lowest Hinv e-value    9.217114744213685E-002
   GDM::BFGS:   highest Hinv e-value    8.42346328409241     
   GDM::      : max scaling in EWCs is          2.82842712474619     
   GDM::      : max rotation in step is        0.120981878892479     
   GDM::        grad.step =  -0.418391195133389     
   ------- Leaving GDM -- hopefully with a step in the right direction! --------
 
   21    -541.5556003914      3.70E-01  Gap = 0.00 eV  Descent step
 
   ------------------- Entering Geometric Direct Minimization ------------------
   GDM::trust : actual energy change is       -0.722380651709045     
   GDM::trust : predicted energy change was   -0.224399159050480     
   GDM::trust : updated trust radius is        0.330000000000000     
   GDM:         diagonal hessian shift is      0.000000000000000E+000
   GDM::PreWSS: input subspace size is                 19
   GDM::PreWSS: working subspace size set to           18
   GDM::PrEWSS: # of linearly dependent vectors =            0
   GDM::PrEWSS: Max dev from orthonormality =   2.688871694744854E-012
   GDM::BFGS:   lowest Hinv e-value    0.222935985232029     
   GDM::BFGS:   highest Hinv e-value    8.16401184832392     
   GDM::      : max scaling in EWCs is          2.82842712474619     
   GDM::      : max rotation in step is        0.235900759709518     
   GDM::        grad.step =  -0.336219190644462     
   ------- Leaving GDM -- hopefully with a step in the right direction! --------
 
   22    -542.2779810431      5.38E-01  Gap = 0.00 eV  Descent step
 
   ------------------- Entering Geometric Direct Minimization ------------------
   GDM::trust : actual energy change is       -0.644048263397053     
   GDM::trust : predicted energy change was   -0.130283114440247     
   GDM::trust : updated trust radius is        0.330000000000000     
   GDM:         diagonal hessian shift is      0.000000000000000E+000
   GDM::PreWSS: input subspace size is                 19
   GDM::PreWSS: working subspace size set to           18
   GDM::PrEWSS: # of linearly dependent vectors =            0
   GDM::PrEWSS: Max dev from orthonormality =   2.587548231236525E-012
   GDM::BFGS:   lowest Hinv e-value    0.191512432368923     
   GDM::BFGS:   highest Hinv e-value    8.48842440565945     
   GDM::      : max scaling in EWCs is          2.82842712474619     
   GDM::      : max rotation in step is        0.780699295793852     
   GDM::        grad.step =  -0.479532057415154     
   ------- Leaving GDM -- hopefully with a step in the right direction! --------
 
   23    -542.9220293065      1.22E+00  Gap = 0.00 eV  Descent step
 
   ------------------- Entering Geometric Direct Minimization ------------------
   GDM::trust : actual energy change is       -0.640455075441082     
   GDM::trust : predicted energy change was   -0.194146427706697     
   GDM::trust : updated trust radius is        0.330000000000000     
   GDM:         diagonal hessian shift is      0.000000000000000E+000
   GDM::PreWSS: input subspace size is                 19
   GDM::PreWSS: working subspace size set to           18
   GDM::PrEWSS: # of linearly dependent vectors =            0
   GDM::PrEWSS: Max dev from orthonormality =   4.978170653480163E-013
   GDM::BFGS:   lowest Hinv e-value    0.169539178112609     
   GDM::BFGS:   highest Hinv e-value    9.07504902326047     
   GDM::      : max scaling in EWCs is          2.82842712474619     
   GDM::      : max rotation in step is        0.587671102843916     
   GDM::        grad.step =  -0.324069670302106     
   ------- Leaving GDM -- hopefully with a step in the right direction! --------
 
   24    -543.5624843820      6.18E-01  Gap = 0.00 eV  Descent step
 
   ------------------- Entering Geometric Direct Minimization ------------------
   GDM::trust : actual energy change is       -0.502227213674587     
   GDM::trust : predicted energy change was   -0.232535933171000     
   GDM::trust : updated trust radius is        0.330000000000000     
   GDM:         diagonal hessian shift is      0.000000000000000E+000
   GDM::PreWSS: input subspace size is                 19
   GDM::PreWSS: working subspace size set to           18
   GDM::PrEWSS: # of linearly dependent vectors =            0
   GDM::PrEWSS: Max dev from orthonormality =   1.920096026619689E-012
   GDM::BFGS:   lowest Hinv e-value    0.190141217081846     
   GDM::BFGS:   highest Hinv e-value    8.90172328578450     
   GDM::      : max scaling in EWCs is          2.82842712474619     
   GDM::      : max rotation in step is        0.391761327896630     
   GDM::        grad.step =  -0.185778764757616     
   ------- Leaving GDM -- hopefully with a step in the right direction! --------
 
   25    -544.0647115956      3.57E-01  Gap = 0.00 eV  Descent step
 
   ------------------- Entering Geometric Direct Minimization ------------------
   GDM::trust : actual energy change is       -0.106189034611134     
   GDM::trust : predicted energy change was   -0.159023997510516     
   GDM::trust : updated trust radius is        0.330000000000000     
   GDM:         diagonal hessian shift is      0.000000000000000E+000
   GDM::PreWSS: input subspace size is                 19
   GDM::PreWSS: working subspace size set to           18
   GDM::PrEWSS: # of linearly dependent vectors =            0
   GDM::PrEWSS: Max dev from orthonormality =   9.314077287214673E-013
   GDM::BFGS:   lowest Hinv e-value    0.192587493027106     
   GDM::BFGS:   highest Hinv e-value    9.21402972983131     
   GDM::      : max scaling in EWCs is          2.82842712474619     
   GDM::      : max rotation in step is       -0.314122296316670     
   GDM::        grad.step =  -0.239859414929955     
   ------- Leaving GDM -- hopefully with a step in the right direction! --------
 
   26    -544.1709006303      3.60E-01  Gap = 0.00 eV  Descent step
 
   ------------------- Entering Geometric Direct Minimization ------------------
   GDM::trust : actual energy change is        5.841197779921004E-002
   GDM::trust : predicted energy change was   -0.353041300422088     
   GDM::trust : updated trust radius is        0.108900000000000     
   GDM::search:  On step            1 .  The current bracket is:
       left   : x =  0.0000E+00, e =      -544.1709006303, g = -0.4801E+00
       current: x =  0.4996E+00, e =      -544.1124886525, g =  0.5273E+00
       right  : x =  0.1000E+04, e =      1000.0000000000, g =  0.1000E+04
       next   : x =  0.2009E+00
   GDM::      : max rotation in step is       -0.126303078417220     
   ------- Leaving GDM -- hopefully with a step in the right direction! --------
 
   27    -544.1124886525      5.89E-02  Gap = 0.00 eV  Line search: overstep
 
   ------------------- Entering Geometric Direct Minimization ------------------
   GDM::trust : actual energy change is       -0.102102654054761     
   GDM::trust : predicted energy change was   -0.353041300422088     
   GDM::trust : updated trust radius is        0.108900000000000     
   GDM:         diagonal hessian shift is      0.000000000000000E+000
   GDM::PreWSS: input subspace size is                 19
   GDM::PreWSS: working subspace size set to           18
   GDM::PrEWSS: # of linearly dependent vectors =            0
   GDM::PrEWSS: Max dev from orthonormality =   5.628813387614784E-013
   GDM::BFGS:   lowest Hinv e-value    0.163489024139400     
   GDM::BFGS:   highest Hinv e-value    9.19226806574214     
   GDM::      : max scaling in EWCs is          2.82842712474619     
   GDM::      : max rotation in step is        6.362420556000330E-002
   GDM::        grad.step =  -1.642305408252648E-002
   ------- Leaving GDM -- hopefully with a step in the right direction! --------
 
   28    -544.2730032843      4.13E-02  Gap = 0.00 eV  Descent step
 
   ------------------- Entering Geometric Direct Minimization ------------------
   GDM::trust : actual energy change is       -1.677234225803659E-002
   GDM::trust : predicted energy change was   -1.716609993217401E-002
   GDM::trust : updated trust radius is        0.330000000000000     
   GDM:         diagonal hessian shift is      0.000000000000000E+000
   GDM::PreWSS: input subspace size is                 19
   GDM::PreWSS: working subspace size set to           18
   GDM::PrEWSS: # of linearly dependent vectors =            0
   GDM::PrEWSS: Max dev from orthonormality =   5.568948080458824E-013
   GDM::BFGS:   lowest Hinv e-value    0.167910508865345     
   GDM::BFGS:   highest Hinv e-value    9.65943626017372     
   GDM::      : max scaling in EWCs is          2.82842712474619     
   GDM::      : max rotation in step is        8.963519823693424E-002
   GDM::        grad.step =  -1.700003097381798E-002
   ------- Leaving GDM -- hopefully with a step in the right direction! --------
 
   29    -544.2897756266      5.07E-02  Gap = 0.00 eV  Normal BFGS step
 
   ------------------- Entering Geometric Direct Minimization ------------------
   GDM::trust : actual energy change is        5.478584096761097E-002
   GDM::trust : predicted energy change was   -2.550004646072697E-002
   GDM::trust : updated trust radius is        0.108900000000000     
   GDM::search:  On step            1 .  The current bracket is:
       left   : x =  0.0000E+00, e =      -544.2897756266, g = -0.6529E-01
       current: x =  0.2604E+00, e =      -544.2349897856, g =  0.2719E+00
       right  : x =  0.1000E+04, e =      1000.0000000000, g =  0.1000E+04
       next   : x =  0.3083E-01
   GDM::      : max rotation in step is        1.061351701359487E-002
   ------- Leaving GDM -- hopefully with a step in the right direction! --------
 
   30    -544.2349897856      5.61E-02  Gap = 0.00 eV  Line search: overstep
 
   ------------------- Entering Geometric Direct Minimization ------------------
   GDM::trust : actual energy change is       -2.774801036366625E-003
   GDM::trust : predicted energy change was   -2.550004646072697E-002
   GDM::trust : updated trust radius is        0.108900000000000     
   GDM:         diagonal hessian shift is      0.000000000000000E+000
   GDM::PreWSS: input subspace size is                 19
   GDM::PreWSS: working subspace size set to           18
   GDM::PrEWSS: # of linearly dependent vectors =            0
   GDM::PrEWSS: Max dev from orthonormality =   1.143980743467665E-012
   GDM::BFGS:   lowest Hinv e-value    0.129954286104710     
   GDM::BFGS:   highest Hinv e-value    6.88874701298953     
   GDM::      : max scaling in EWCs is          2.82842712474619     
   GDM::      : max rotation in step is        6.037023640107497E-002
   GDM::        grad.step =  -5.302614239565093E-003
   ------- Leaving GDM -- hopefully with a step in the right direction! --------
 
   31    -544.2925504276      3.88E-02  Gap = 0.00 eV  Normal BFGS step
 
   ------------------- Entering Geometric Direct Minimization ------------------
   GDM::trust : actual energy change is        1.369478437140970E-003
   GDM::trust : predicted energy change was   -7.953921359347643E-003
   GDM::trust : updated trust radius is        0.108900000000000     
   GDM::search:  On step            1 .  The current bracket is:
       left   : x =  0.0000E+00, e =      -544.2925504276, g = -0.4392E-01
       current: x =  0.1207E+00, e =      -544.2911809492, g =  0.5598E-01
       right  : x =  0.1000E+04, e =      1000.0000000000, g =  0.1000E+04
       next   : x =  0.4798E-01
   GDM::      : max rotation in step is        2.398948056461131E-002
   ------- Leaving GDM -- hopefully with a step in the right direction! --------
 
   32    -544.2911809492      2.78E-02  Gap = 0.00 eV  Line search: overstep
 
   ------------------- Entering Geometric Direct Minimization ------------------
   GDM::trust : actual energy change is       -2.340328945138026E-003
   GDM::trust : predicted energy change was   -7.953921359347643E-003
   GDM::trust : updated trust radius is        0.108900000000000     
   GDM:         diagonal hessian shift is      0.000000000000000E+000
   GDM::PreWSS: input subspace size is                 19
   GDM::PreWSS: working subspace size set to           18
   GDM::PrEWSS: # of linearly dependent vectors =            0
   GDM::PrEWSS: Max dev from orthonormality =   1.263419924235620E-012
   GDM::BFGS:   lowest Hinv e-value    0.126767493268458     
   GDM::BFGS:   highest Hinv e-value    7.13827224763691     
   GDM::      : max scaling in EWCs is          2.82842712474619     
   GDM::      : max rotation in step is        7.203315938181939E-002
   GDM::        grad.step =  -1.959802081290651E-003
   ------- Leaving GDM -- hopefully with a step in the right direction! --------
 
   33    -544.2948907565      3.03E-02  Gap = 0.00 eV  Normal BFGS step
 
   ------------------- Entering Geometric Direct Minimization ------------------
   GDM::trust : actual energy change is        1.451075264071733E-003
   GDM::trust : predicted energy change was   -2.939703121935977E-003
   GDM::trust : updated trust radius is        0.108900000000000     
   GDM::search:  On step            1 .  The current bracket is:
       left   : x =  0.0000E+00, e =      -544.2948907565, g = -0.1950E-01
       current: x =  0.1005E+00, e =      -544.2934396813, g =  0.3417E-01
       right  : x =  0.1000E+04, e =      1000.0000000000, g =  0.1000E+04
       next   : x =  0.2887E-01
   GDM::      : max rotation in step is        2.069419703267465E-002
   ------- Leaving GDM -- hopefully with a step in the right direction! --------
 
   34    -544.2934396813      9.75E-03  Gap = 0.00 eV  Line search: overstep
 
   ------------------- Entering Geometric Direct Minimization ------------------
   GDM::trust : actual energy change is       -6.859383601067748E-004
   GDM::trust : predicted energy change was   -2.939703121935977E-003
   GDM::trust : updated trust radius is        0.108900000000000     
   GDM:         diagonal hessian shift is      0.000000000000000E+000
   GDM::PreWSS: input subspace size is                 19
   GDM::PreWSS: working subspace size set to           18
   GDM::PrEWSS: # of linearly dependent vectors =            0
   GDM::PrEWSS: Max dev from orthonormality =   6.475348035550610E-012
   GDM::BFGS:   lowest Hinv e-value    0.126505658533915     
   GDM::BFGS:   highest Hinv e-value    6.28899563286683     
   GDM::      : max scaling in EWCs is          2.82842712474619     
   GDM::      : max rotation in step is        5.448556879226508E-002
   GDM::        grad.step =  -8.632296831047097E-004
   ------- Leaving GDM -- hopefully with a step in the right direction! --------
 
   35    -544.2955766949      1.76E-02  Gap = 0.00 eV  Normal BFGS step
 
   ------------------- Entering Geometric Direct Minimization ------------------
   GDM::trust : actual energy change is        4.451035384818169E-004
   GDM::trust : predicted energy change was   -1.294844524657064E-003
   GDM::trust : updated trust radius is        0.108900000000000     
   GDM::search:  On step            1 .  The current bracket is:
       left   : x =  0.0000E+00, e =      -544.2955766949, g = -0.1235E-01
       current: x =  0.6990E-01, e =      -544.2951315914, g =  0.1874E-01
       right  : x =  0.1000E+04, e =      1000.0000000000, g =  0.1000E+04
       next   : x =  0.2306E-01
   GDM::      : max rotation in step is        1.797461056033281E-002
   ------- Leaving GDM -- hopefully with a step in the right direction! --------
 
   36    -544.2951315914      6.73E-03  Gap = 0.00 eV  Line search: overstep
 
   ------------------- Entering Geometric Direct Minimization ------------------
   GDM::trust : actual energy change is       -3.335864548716927E-004
   GDM::trust : predicted energy change was   -1.294844524657064E-003
   GDM::trust : updated trust radius is        0.108900000000000     
   GDM:         diagonal hessian shift is      0.000000000000000E+000
   GDM::PreWSS: input subspace size is                 19
   GDM::PreWSS: working subspace size set to           18
   GDM::PrEWSS: # of linearly dependent vectors =            0
   GDM::PrEWSS: Max dev from orthonormality =   2.407313931529487E-012
   GDM::BFGS:   lowest Hinv e-value    0.120486189720274     
   GDM::BFGS:   highest Hinv e-value    5.93075997918694     
   GDM::      : max scaling in EWCs is          2.82842712474619     
   GDM::      : max rotation in step is        2.217558613354859E-002
   GDM::        grad.step =  -1.942314214327112E-004
   ------- Leaving GDM -- hopefully with a step in the right direction! --------
 
   37    -544.2959102814      8.23E-03  Gap = 0.00 eV  Normal BFGS step
 
   ------------------- Entering Geometric Direct Minimization ------------------
   GDM::trust : actual energy change is        4.476397771213669E-005
   GDM::trust : predicted energy change was   -2.913471321490667E-004
   GDM::trust : updated trust radius is        0.108900000000000     
   GDM::search:  On step            1 .  The current bracket is:
       left   : x =  0.0000E+00, e =      -544.2959102814, g = -0.6544E-02
       current: x =  0.2968E-01, e =      -544.2958655174, g =  0.8054E-02
       right  : x =  0.1000E+04, e =      1000.0000000000, g =  0.1000E+04
       next   : x =  0.1206E-01
   GDM::      : max rotation in step is        9.011042955710211E-003
   ------- Leaving GDM -- hopefully with a step in the right direction! --------
 
   38    -544.2958655174      1.66E-03  Gap = 0.00 eV  Line search: overstep
 
   ------------------- Entering Geometric Direct Minimization ------------------
   GDM::trust : actual energy change is       -8.633257471046818E-005
   GDM::trust : predicted energy change was   -2.913471321490667E-004
   GDM::trust : updated trust radius is        0.108900000000000     
   GDM:         diagonal hessian shift is      0.000000000000000E+000
   GDM::PreWSS: input subspace size is                 19
   GDM::PreWSS: working subspace size set to           18
   GDM::PrEWSS: # of linearly dependent vectors =            0
   GDM::PrEWSS: Max dev from orthonormality =   3.738787057727677E-012
   GDM::BFGS:   lowest Hinv e-value    0.118760273599380     
   GDM::BFGS:   highest Hinv e-value    4.66693273118437     
   GDM::      : max scaling in EWCs is          2.82842712474619     
   GDM::      : max rotation in step is        1.870052586395440E-002
   GDM::        grad.step =  -1.421249607589399E-004
   ------- Leaving GDM -- hopefully with a step in the right direction! --------
 
   39    -544.2959966139      3.73E-03  Gap = 0.00 eV  Normal BFGS step
 
   ------------------- Entering Geometric Direct Minimization ------------------
   GDM::trust : actual energy change is        1.225578214416601E-004
   GDM::trust : predicted energy change was   -2.131874411384098E-004
   GDM::trust : updated trust radius is        0.108900000000000     
   GDM::search:  On step            1 .  The current bracket is:
       left   : x =  0.0000E+00, e =      -544.2959966139, g = -0.5393E-02
       current: x =  0.2635E-01, e =      -544.2958740561, g =  0.1005E-01
       right  : x =  0.1000E+04, e =      1000.0000000000, g =  0.1000E+04
       next   : x =  0.7076E-02
   GDM::      : max rotation in step is        5.020748766672204E-003
   ------- Leaving GDM -- hopefully with a step in the right direction! --------
 
   40    -544.2958740561      2.26E-03  Gap = 0.00 eV  Line search: overstep
 
   ------------------- Entering Geometric Direct Minimization ------------------
   GDM::trust : actual energy change is       -4.700042518379632E-005
   GDM::trust : predicted energy change was   -2.131874411384098E-004
   GDM::trust : updated trust radius is        0.108900000000000     
   GDM:         diagonal hessian shift is      0.000000000000000E+000
   GDM::PreWSS: input subspace size is                 19
   GDM::PreWSS: working subspace size set to           18
   GDM::PrEWSS: # of linearly dependent vectors =            0
   GDM::PrEWSS: Max dev from orthonormality =   2.688956696195177E-012
   GDM::BFGS:   lowest Hinv e-value    0.117649123148953     
   GDM::BFGS:   highest Hinv e-value    4.12223760612268     
   GDM::      : max scaling in EWCs is          2.82842712474619     
   GDM::      : max rotation in step is        8.603872589306416E-003
   GDM::        grad.step =  -5.505815949716581E-005
   ------- Leaving GDM -- hopefully with a step in the right direction! --------
 
   41    -544.2960436144      1.67E-03  Gap = 0.00 eV  Normal BFGS step
 
   ------------------- Entering Geometric Direct Minimization ------------------
   GDM::trust : actual energy change is        7.452124634710344E-005
   GDM::trust : predicted energy change was   -8.258723924574869E-005
   GDM::trust : updated trust radius is        0.108900000000000     
   GDM::search:  On step            1 .  The current bracket is:
       left   : x =  0.0000E+00, e =      -544.2960436144, g = -0.3894E-02
       current: x =  0.1414E-01, e =      -544.2959690931, g =  0.9165E-02
       right  : x =  0.1000E+04, e =      1000.0000000000, g =  0.1000E+04
       next   : x =  0.3004E-02
   GDM::      : max rotation in step is        1.827888414169156E-003
   ------- Leaving GDM -- hopefully with a step in the right direction! --------
 
   42    -544.2959690931      2.49E-03  Gap = 0.00 eV  Line search: overstep
 
   ------------------- Entering Geometric Direct Minimization ------------------
   GDM::trust : actual energy change is       -1.506227272329852E-005
   GDM::trust : predicted energy change was   -8.258723924574869E-005
   GDM::trust : updated trust radius is        0.108900000000000     
   GDM:         diagonal hessian shift is      0.000000000000000E+000
   GDM::PreWSS: input subspace size is                 19
   GDM::PreWSS: working subspace size set to           18
   GDM::PrEWSS: # of linearly dependent vectors =            0
   GDM::PrEWSS: Max dev from orthonormality =   9.881748197493323E-013
   GDM::BFGS:   lowest Hinv e-value    0.118235271468420     
   GDM::BFGS:   highest Hinv e-value    4.25453423960345     
   GDM::      : max scaling in EWCs is          2.82842712474619     
   GDM::      : max rotation in step is        5.167179342637577E-003
   GDM::        grad.step =  -2.872976551668847E-005
   ------- Leaving GDM -- hopefully with a step in the right direction! --------
 
   43    -544.2960586766      1.21E-03  Gap = 0.00 eV  Normal BFGS step
 
   ------------------- Entering Geometric Direct Minimization ------------------
   GDM::trust : actual energy change is        1.695723369721236E-005
   GDM::trust : predicted energy change was   -4.309464827503272E-005
   GDM::trust : updated trust radius is        0.108900000000000     
   GDM::search:  On step            1 .  The current bracket is:
       left   : x =  0.0000E+00, e =      -544.2960586766, g = -0.2898E-02
       current: x =  0.9915E-02, e =      -544.2960417194, g =  0.4609E-02
       right  : x =  0.1000E+04, e =      1000.0000000000, g =  0.1000E+04
       next   : x =  0.3117E-02
   GDM::      : max rotation in step is        1.624661867171677E-003
   ------- Leaving GDM -- hopefully with a step in the right direction! --------
 
   44    -544.2960417194      7.17E-04  Gap = 0.00 eV  Line search: overstep
 
   ------------------- Entering Geometric Direct Minimization ------------------
   GDM::trust : actual energy change is       -1.071100484750787E-005
   GDM::trust : predicted energy change was   -4.309464827503272E-005
   GDM::trust : updated trust radius is        0.108900000000000     
   GDM:         diagonal hessian shift is      0.000000000000000E+000
   GDM::PreWSS: input subspace size is                 19
   GDM::PreWSS: working subspace size set to           18
   GDM::PrEWSS: # of linearly dependent vectors =            0
   GDM::PrEWSS: Max dev from orthonormality =   1.293935444901528E-012
   GDM::BFGS:   lowest Hinv e-value    0.118306296780400     
   GDM::BFGS:   highest Hinv e-value    2.72962767882440     
   GDM::      : max scaling in EWCs is          2.82842712474619     
   GDM::      : max rotation in step is        1.498015707037500E-003
   GDM::        grad.step =  -1.066406453185669E-005
   ------- Leaving GDM -- hopefully with a step in the right direction! --------
 
   45    -544.2960693876      5.65E-04  Gap = 0.00 eV  Normal BFGS step
 
   ------------------- Entering Geometric Direct Minimization ------------------
   GDM::trust : actual energy change is       -2.371575646975543E-007
   GDM::trust : predicted energy change was   -1.599609679778503E-005
   GDM::trust : updated trust radius is        0.330000000000000     
   GDM:         diagonal hessian shift is      0.000000000000000E+000
   GDM::PreWSS: input subspace size is                 19
   GDM::PreWSS: working subspace size set to           18
   GDM::PrEWSS: # of linearly dependent vectors =            0
   GDM::PrEWSS: Max dev from orthonormality =   8.597289546941056E-013
   GDM::BFGS:   lowest Hinv e-value    0.118319422311757     
   GDM::BFGS:   highest Hinv e-value    2.21196897823026     
   GDM::      : max scaling in EWCs is          2.82842712474619     
   GDM::      : max rotation in step is       -1.370005056863738E-003
   GDM::        grad.step =  -6.369581206554323E-006
   ------- Leaving GDM -- hopefully with a step in the right direction! --------
 
   46    -544.2960696248      7.99E-04  Gap = 0.00 eV  Normal BFGS step
 
   ------------------- Entering Geometric Direct Minimization ------------------
   GDM::trust : actual energy change is       -5.926144581280823E-006
   GDM::trust : predicted energy change was   -9.554371809831482E-006
   GDM::trust : updated trust radius is        0.330000000000000     
   GDM:         diagonal hessian shift is      0.000000000000000E+000
   GDM::PreWSS: input subspace size is                 19
   GDM::PreWSS: working subspace size set to           18
   GDM::PrEWSS: # of linearly dependent vectors =            0
   GDM::PrEWSS: Max dev from orthonormality =   1.706065844153670E-012
   GDM::BFGS:   lowest Hinv e-value    0.118562034279613     
   GDM::BFGS:   highest Hinv e-value    2.07075086926108     
   GDM::      : max scaling in EWCs is          2.82842712474619     
   GDM::      : max rotation in step is        5.196612023614066E-004
   GDM::        grad.step =  -5.148378472303686E-007
   ------- Leaving GDM -- hopefully with a step in the right direction! --------
 
   47    -544.2960755509      2.41E-04  Gap = 0.00 eV  Normal BFGS step
 
   ------------------- Entering Geometric Direct Minimization ------------------
   GDM::trust : actual energy change is       -9.146765478362795E-008
   GDM::trust : predicted energy change was   -7.722567708455529E-007
   GDM::trust : updated trust radius is        0.330000000000000     
   GDM:         diagonal hessian shift is      0.000000000000000E+000
   GDM::PreWSS: input subspace size is                 19
   GDM::PreWSS: working subspace size set to           18
   GDM::PrEWSS: # of linearly dependent vectors =            0
   GDM::PrEWSS: Max dev from orthonormality =   3.012867733076519E-012
   GDM::BFGS:   lowest Hinv e-value    0.119781166707220     
   GDM::BFGS:   highest Hinv e-value    1.63114347882404     
   GDM::      : max scaling in EWCs is          2.82842712474619     
   GDM::      : max rotation in step is        2.336171384765490E-004
   GDM::        grad.step =  -2.376219662851267E-007
   ------- Leaving GDM -- hopefully with a step in the right direction! --------
 
   48    -544.2960756424      1.77E-04  Gap = 0.00 eV  Normal BFGS step
 
   ------------------- Entering Geometric Direct Minimization ------------------
   GDM::trust : actual energy change is       -2.313488494110061E-007
   GDM::trust : predicted energy change was   -3.564329494276899E-007
   GDM::trust : updated trust radius is        0.330000000000000     
   GDM:         diagonal hessian shift is      0.000000000000000E+000
   GDM::PreWSS: input subspace size is                 19
   GDM::PreWSS: working subspace size set to           18
   GDM::PrEWSS: # of linearly dependent vectors =            0
   GDM::PrEWSS: Max dev from orthonormality =   1.500383151054052E-012
   GDM::BFGS:   lowest Hinv e-value    0.119933136170833     
   GDM::BFGS:   highest Hinv e-value    1.85021019695338     
   GDM::      : max scaling in EWCs is          2.82842712474619     
   GDM::      : max rotation in step is        4.424239404864379E-004
   GDM::        grad.step =  -4.993250591017766E-008
   ------- Leaving GDM -- hopefully with a step in the right direction! --------
 
   49    -544.2960758738      1.68E-04  Gap = 0.00 eV  Normal BFGS step
 
   ------------------- Entering Geometric Direct Minimization ------------------
   GDM::trust : actual energy change is        1.740007746775518E-007
   GDM::trust : predicted energy change was   -7.489875886526649E-008
   GDM::trust : updated trust radius is        0.108900000000000     
   GDM::search:  On step            1 .  The current bracket is:
       left   : x =  0.0000E+00, e =      -544.2960758738, g = -0.9912E-04
       current: x =  0.5038E-03, e =      -544.2960756998, g =  0.4445E-03
       right  : x =  0.1000E+04, e =      1000.0000000000, g =  0.1000E+04
       next   : x =  0.5617E-04
   GDM::      : max rotation in step is        4.932570979437001E-005
   ------- Leaving GDM -- hopefully with a step in the right direction! --------
 
   50    -544.2960756998      9.63E-04  Gap = 0.00 eV  Line search: overstep
 
   ------------------- Entering Geometric Direct Minimization ------------------
   GDM::trust : actual energy change is       -7.732182893960271E-009
   GDM::trust : predicted energy change was   -7.489875886526649E-008
   GDM::trust : updated trust radius is        0.108900000000000     
   GDM:         diagonal hessian shift is      0.000000000000000E+000
   GDM::PreWSS: input subspace size is                 19
   GDM::PreWSS: working subspace size set to           18
   GDM::PrEWSS: # of linearly dependent vectors =            0
   GDM::PrEWSS: Max dev from orthonormality =   6.811537445194915E-012
   GDM::BFGS:   lowest Hinv e-value    0.119896910185780     
   GDM::BFGS:   highest Hinv e-value    1.67686452457072     
   GDM::      : max scaling in EWCs is          2.82842712474619     
   GDM::      : max rotation in step is        1.103333652696920E-004
   GDM::        grad.step =  -8.263591864993211E-009
   ------- Leaving GDM -- hopefully with a step in the right direction! --------
 
   51    -544.2960758815      5.27E-05  Gap = 0.00 eV  Normal BFGS step
 
   ------------------- Entering Geometric Direct Minimization ------------------
   GDM::trust : actual energy change is       -8.275264917756431E-009
   GDM::trust : predicted energy change was   -1.239538779748982E-008
   GDM::trust : updated trust radius is        0.330000000000000     
   GDM:         diagonal hessian shift is      0.000000000000000E+000
   GDM::PreWSS: input subspace size is                 19
   GDM::PreWSS: working subspace size set to           18
   GDM::PrEWSS: # of linearly dependent vectors =            0
   GDM::PrEWSS: Max dev from orthonormality =   8.673594828478848E-012
   GDM::BFGS:   lowest Hinv e-value    0.119834814160123     
   GDM::BFGS:   highest Hinv e-value    1.97410123371348     
   GDM::      : max scaling in EWCs is          2.82842712474619     
   GDM::      : max rotation in step is        1.467045430064868E-004
   GDM::        grad.step =  -2.896173239918960E-009
   ------- Leaving GDM -- hopefully with a step in the right direction! --------
 
   52    -544.2960758898      3.84E-05  Gap = 0.00 eV  Normal BFGS step
 
   ------------------- Entering Geometric Direct Minimization ------------------
   GDM::trust : actual energy change is       -5.012793735659216E-009
   GDM::trust : predicted energy change was   -4.344259859878441E-009
   GDM::trust : updated trust radius is        0.330000000000000     
   GDM:         diagonal hessian shift is      0.000000000000000E+000
   GDM::PreWSS: input subspace size is                 19
   GDM::PreWSS: working subspace size set to           18
   GDM::PrEWSS: # of linearly dependent vectors =            0
   GDM::PrEWSS: Max dev from orthonormality =   2.857164851932659E-011
   GDM::BFGS:   lowest Hinv e-value    0.114547253547921     
   GDM::BFGS:   highest Hinv e-value    14.3113244743775     
   GDM::      : max scaling in EWCs is          2.82842712474619     
   GDM::      : max rotation in step is        1.409272487692648E-003
   GDM::        grad.step =  -2.219430528077087E-008
   ------- Leaving GDM -- hopefully with a step in the right direction! --------
 
   53    -544.2960758948      4.58E-05  Gap = 0.00 eV  Normal BFGS step
 
   ------------------- Entering Geometric Direct Minimization ------------------
   GDM::trust : actual energy change is       -4.938806341669988E-008
   GDM::trust : predicted energy change was   -3.329145792115628E-008
   GDM::trust : updated trust radius is        0.330000000000000     
   GDM::search:  On step            1 .  The current bracket is:
       left   : x =  0.0000E+00, e =      -544.2960758948, g = -0.1474E-04
       current: x =  0.1506E-02, e =      -544.2960759442, g = -0.1804E-04
       right  : x =  0.1000E+04, e =      1000.0000000000, g =  0.1000E+04
       next   : x =  0.1506E-01
   GDM::      : max rotation in step is        1.409272487692648E-002
   ------- Leaving GDM -- hopefully with a step in the right direction! --------
 
   54    -544.2960759442      1.80E-04  Gap = 0.00 eV  Line search: understep
 
   ------------------- Entering Geometric Direct Minimization ------------------
   GDM::trust : actual energy change is       -8.841610679155565E-007
   GDM::trust : predicted energy change was   -3.329145792115628E-008
   GDM::trust : updated trust radius is        0.330000000000000     
   GDM::search:  On step            2 .  The current bracket is:
       left   : x =  0.1506E-02, e =      -544.2960759442, g = -0.1804E-04
       current: x =  0.1506E-01, e =      -544.2960767789, g = -0.4160E-04
       right  : x =  0.1000E+04, e =         0.0000000000, g =  0.0000E+00
       next   : x =  0.1371E+00
   GDM::      : max rotation in step is        0.128243796380031     
   ------- Leaving GDM -- hopefully with a step in the right direction! --------
 
   55    -544.2960767789      1.73E-03  Gap = 0.00 eV  Line search: understep
 
   ------------------- Entering Geometric Direct Minimization ------------------
   GDM::trust : actual energy change is        3.677847473682050E-005
   GDM::trust : predicted energy change was   -3.329145792115628E-008
   GDM::trust : updated trust radius is        0.108900000000000     
   GDM::search:  On step            3 .  The current bracket is:
       left   : x =  0.1506E-01, e =      -544.2960767789, g = -0.4160E-04
       current: x =  0.1371E+00, e =      -544.2960391163, g =  0.7154E-03
       right  : x =  0.1000E+04, e =         0.0000000000, g =  0.0000E+00
       next   : x =  0.2726E-01
   GDM::      : max rotation in step is        2.550783202723693E-002
   ------- Leaving GDM -- hopefully with a step in the right direction! --------
 
   56    -544.2960391163      2.57E-02  Gap = 0.00 eV  Line search: overstep
 
   ------------------- Entering Geometric Direct Minimization ------------------
   GDM::trust : actual energy change is       -2.044340135398670E-006
   GDM::trust : predicted energy change was   -3.329145792115628E-008
   GDM::trust : updated trust radius is        0.108900000000000     
   GDM::search:  On step            4 .  The current bracket is:
       left   : x =  0.1506E-01, e =      -544.2960767789, g = -0.4160E-04
       current: x =  0.2726E-01, e =      -544.2960779391, g = -0.5151E-04
       right  : x =  0.1371E+00, e =         0.0000000000, g =  0.0000E+00
       next   : x =  0.1261E+00
   GDM::      : max rotation in step is        0.117970199944752     
   ------- Leaving GDM -- hopefully with a step in the right direction! --------
 
   57    -544.2960779391      3.32E-03  Gap = 0.00 eV  Line search: understep
 
   ------------------- Entering Geometric Direct Minimization ------------------
   GDM::trust : actual energy change is        2.297562821240717E-005
   GDM::trust : predicted energy change was   -3.329145792115628E-008
   GDM::trust : updated trust radius is        3.593700000000000E-002
   GDM::search:  On step            5 .  The current bracket is:
       left   : x =  0.2726E-01, e =      -544.2960779391, g = -0.5151E-04
       current: x =  0.1261E+00, e =      -544.2960529191, g =  0.5459E-03
       right  : x =  0.1371E+00, e =         0.0000000000, g =  0.0000E+00
       next   : x =  0.3714E-01
   GDM::      : max rotation in step is        3.475406881898840E-002
   ------- Leaving GDM -- hopefully with a step in the right direction! --------
 
   58    -544.2960529191      2.28E-02  Gap = 0.00 eV  Line search: overstep
 
   ------------------- Entering Geometric Direct Minimization ------------------
   GDM::trust : actual energy change is       -3.062889049942896E-006
   GDM::trust : predicted energy change was   -3.329145792115628E-008
   GDM::trust : updated trust radius is        3.593700000000000E-002
   GDM::search:  On step            6 .  The current bracket is:
       left   : x =  0.2726E-01, e =      -544.2960779391, g = -0.5151E-04
       current: x =  0.3714E-01, e =      -544.2960789577, g = -0.5003E-04
       right  : x =  0.1261E+00, e =         0.0000000000, g =  0.0000E+00
       next   : x =  0.1172E+00
   GDM::      : max rotation in step is        0.109648586832175     
   ------- Leaving GDM -- hopefully with a step in the right direction! --------
 
   59    -544.2960789577      4.74E-03  Gap = 0.00 eV  Line search: understep
 
   ------------------- Entering Geometric Direct Minimization ------------------
   GDM::trust : actual energy change is        1.434897171748162E-005
   GDM::trust : predicted energy change was   -3.329145792115628E-008
   GDM::trust : updated trust radius is        1.185921000000000E-002
   GDM::search:  On step            7 .  The current bracket is:
       left   : x =  0.3714E-01, e =      -544.2960789577, g = -0.5003E-04
       current: x =  0.1172E+00, e =      -544.2960615458, g =  0.4267E-03
       right  : x =  0.1261E+00, e =         0.0000000000, g =  0.0000E+00
       next   : x =  0.4515E-01
   GDM::      : max rotation in step is        4.224352062030708E-002
   ------- Leaving GDM -- hopefully with a step in the right direction! --------
 
   60    -544.2960615458      2.06E-02  Gap = 0.00 eV  Line search: overstep
 
   ------------------- Entering Geometric Direct Minimization ------------------
   GDM::trust : actual energy change is       -3.805971687143028E-006
   GDM::trust : predicted energy change was   -3.329145792115628E-008
   GDM::trust : updated trust radius is        1.185921000000000E-002
   GDM::search:  On step            8 .  The current bracket is:
       left   : x =  0.3714E-01, e =      -544.2960789577, g = -0.5003E-04
       current: x =  0.4515E-01, e =      -544.2960797007, g = -0.4168E-04
       right  : x =  0.1172E+00, e =         0.0000000000, g =  0.0000E+00
       next   : x =  0.1100E+00
   GDM::      : max rotation in step is        0.102908080210988     
   ------- Leaving GDM -- hopefully with a step in the right direction! --------
 
   61    -544.2960797007      5.98E-03  Gap = 0.00 eV  Line search: understep
 
   ------------------- Entering Geometric Direct Minimization ------------------
   GDM::trust : actual energy change is        8.827956207824172E-006
   GDM::trust : predicted energy change was   -3.329145792115628E-008
   GDM::trust : updated trust radius is        3.913539300000001E-003
   GDM::search:  On step            9 .  The current bracket is:
       left   : x =  0.4515E-01, e =      -544.2960797007, g = -0.4168E-04
       current: x =  0.1100E+00, e =      -544.2960670668, g =  0.3414E-03
       right  : x =  0.1172E+00, e =         0.0000000000, g =  0.0000E+00
       next   : x =  0.5163E-01
   GDM::      : max rotation in step is        4.830997657937521E-002
   ------- Leaving GDM -- hopefully with a step in the right direction! --------
 
   62    -544.2960670668      1.89E-02  Gap = 0.00 eV  Line search: overstep
 
   ------------------- Entering Geometric Direct Minimization ------------------
   GDM::trust : actual energy change is       -4.274271759641124E-006
   GDM::trust : predicted energy change was   -3.329145792115628E-008
   GDM::trust : updated trust radius is        3.913539300000001E-003
   GDM::search:  On step           10 .  The current bracket is:
       left   : x =  0.4515E-01, e =      -544.2960797007, g = -0.4168E-04
       current: x =  0.5163E-01, e =      -544.2960801690, g = -0.2975E-04
       right  : x =  0.1100E+00, e =         0.0000000000, g =  0.0000E+00
       next   : x =  0.1041E+00
   GDM::      : max rotation in step is        9.744826984782712E-002
   ------- Leaving GDM -- hopefully with a step in the right direction! --------
 
   63    -544.2960801690      7.05E-03  Gap = 0.00 eV  Line search: understep
 
   ------------------- Entering Geometric Direct Minimization ------------------
   GDM::trust : actual energy change is        5.211920665715297E-006
   GDM::trust : predicted energy change was   -3.329145792115628E-008
   GDM::trust : updated trust radius is        1.291467969000000E-003
   GDM::search:  On step           11 .  The current bracket is:
       left   : x =  0.5163E-01, e =      -544.2960801690, g = -0.2975E-04
       current: x =  0.1041E+00, e =      -544.2960706829, g =  0.2794E-03
       right  : x =  0.1100E+00, e =         0.0000000000, g =  0.0000E+00
       next   : x =  0.5688E-01
   GDM::      : max rotation in step is        5.322380590622040E-002
   ------- Leaving GDM -- hopefully with a step in the right direction! --------
 
   64    -544.2960706829      1.75E-02  Gap = 0.00 eV  Line search: overstep
 
   ------------------- Entering Geometric Direct Minimization ------------------
   GDM::trust : actual energy change is       -4.519768822319747E-006
   GDM::trust : predicted energy change was   -3.329145792115628E-008
   GDM::trust : updated trust radius is        1.291467969000000E-003
   GDM::search:  On step           12 .  The current bracket is:
       left   : x =  0.5163E-01, e =      -544.2960801690, g = -0.2975E-04
       current: x =  0.5688E-01, e =      -544.2960804145, g = -0.1644E-04
       right  : x =  0.1041E+00, e =         0.0000000000, g =  0.0000E+00
       next   : x =  0.9942E-01
   GDM::      : max rotation in step is        9.302582345366642E-002
   ------- Leaving GDM -- hopefully with a step in the right direction! --------
 
   65    -544.2960804145      7.94E-03  Gap = 0.00 eV  Line search: understep
 
   ------------------- Entering Geometric Direct Minimization ------------------
   GDM::trust : actual energy change is        2.790199687296990E-006
   GDM::trust : predicted energy change was   -3.329145792115628E-008
   GDM::trust : updated trust radius is        4.261844297700002E-004
   GDM::search:  On step           13 .  The current bracket is:
       left   : x =  0.5688E-01, e =      -544.2960804145, g = -0.1644E-04
       current: x =  0.9942E-01, e =      -544.2960731046, g =  0.2337E-03
       right  : x =  0.1041E+00, e =         0.0000000000, g =  0.0000E+00
       next   : x =  0.6114E-01
   GDM::      : max rotation in step is        5.720400766096501E-002
   ------- Leaving GDM -- hopefully with a step in the right direction! --------
 
   66    -544.2960731046      1.64E-02  Gap = 0.00 eV  Line search: overstep
 
   ------------------- Entering Geometric Direct Minimization ------------------
   GDM::trust : actual energy change is       -4.604688342624286E-006
   GDM::trust : predicted energy change was   -3.329145792115628E-008
   GDM::trust : updated trust radius is        4.261844297700002E-004
   GDM:         diagonal hessian shift is      0.000000000000000E+000
   GDM::PreWSS: input subspace size is                 19
   GDM::PreWSS: working subspace size set to           18
   GDM::PrEWSS: # of linearly dependent vectors =            0
   GDM::PrEWSS: Max dev from orthonormality =   4.500367439819186E-011
   GDM::BFGS:   lowest Hinv e-value    5.050022585374960E-003
   GDM::BFGS:   highest Hinv e-value    30847.0820017780     
   GDM::      : max scaling in EWCs is          2.82842712474619     
   GDM::      : max rotation in step is       -7.562881941033422E-004
   GDM::        grad.step =  -4.973846271681814E-006
   ------- Leaving GDM -- hopefully with a step in the right direction! --------
 
   67    -544.2960804995      7.32E-03  Gap = 0.00 eV  Descent step
 
   ------------------- Entering Geometric Direct Minimization ------------------
   GDM::trust : actual energy change is       -9.122740607381274E-006
   GDM::trust : predicted energy change was   -1.816165728843852E-005
   GDM::trust : updated trust radius is        0.330000000000000     
   GDM:         diagonal hessian shift is      0.000000000000000E+000
   GDM::PreWSS: input subspace size is                 19
   GDM::PreWSS: working subspace size set to           18
   GDM::PrEWSS: # of linearly dependent vectors =            0
   GDM::PrEWSS: Max dev from orthonormality =   5.184046247830310E-010
   GDM::BFGS:   lowest Hinv e-value    0.127325282969211     
   GDM::BFGS:   highest Hinv e-value    31475.0534048380     
   GDM::trust : dogleg step length is          0.330000000000000     
   GDM::      : max scaling in EWCs is          2.82842712474619     
   GDM::      : max rotation in step is        0.848911928566370     
   GDM::        grad.step =  -6.023873576072496E-004
   ------- Leaving GDM -- hopefully with a step in the right direction! --------
 
   68    -544.2960896222      5.57E-03  Gap = 0.00 eV  Dog-leg BFGS step
 
   ------------------- Entering Geometric Direct Minimization ------------------
   GDM::trust : actual energy change is        2.840720839935784E-002
   GDM::trust : predicted energy change was   -7.885808833361409E-004
   GDM::trust : updated trust radius is        0.108900000000000     
   GDM::search:  On step            1 .  The current bracket is:
       left   : x =  0.0000E+00, e =      -544.2960896222, g = -0.6614E-03
       current: x =  0.9107E+00, e =      -544.2676824138, g =  0.5281E-01
       right  : x =  0.1000E+04, e =      1000.0000000000, g =  0.1000E+04
       next   : x =  0.9107E-01
   GDM::      : max rotation in step is        8.489119285663703E-002
   ------- Leaving GDM -- hopefully with a step in the right direction! --------
 
   69    -544.2676824138      2.31E-01  Gap = 0.00 eV  Line search: overstep
 
   ------------------- Entering Geometric Direct Minimization ------------------
   GDM::trust : actual energy change is       -1.782395734153397E-004
   GDM::trust : predicted energy change was   -7.885808833361409E-004
   GDM::trust : updated trust radius is        0.108900000000000     
   GDM::search:  On step            2 .  The current bracket is:
       left   : x =  0.0000E+00, e =      -544.2960896222, g = -0.6614E-03
       current: x =  0.9107E-01, e =      -544.2962678618, g = -0.1251E-02
       right  : x =  0.9107E+00, e =         0.0000000000, g =  0.0000E+00
       next   : x =  0.8288E+00
   GDM::      : max rotation in step is        0.772509854995397     
   ------- Leaving GDM -- hopefully with a step in the right direction! --------
 
   70    -544.2962678618      2.10E-03  Gap = 0.00 eV  Line search: understep
 
   ------------------- Entering Geometric Direct Minimization ------------------
   GDM::trust : actual energy change is        2.035907319225316E-002
[...]
   GDM:         diagonal hessian shift is      0.000000000000000E+000
   GDM::PreWSS: input subspace size is                 11
   GDM::PreWSS: working subspace size set to           11
   GDM::PrEWSS: # of linearly dependent vectors =           10
   GDM::PrEWSS: Max dev from orthonormality =   2.930641840315218E-014
   GDM::BFGS:   lowest Hinv e-value    0.243322371228053     
   GDM::BFGS:   highest Hinv e-value    1.62814879238744     
   GDM::      : max scaling in EWCs is          1.99679098033888     
   GDM::      : max rotation in step is        3.783203657197529E-007
   GDM::        grad.step =  -1.406031247485122E-012
   ------- Leaving GDM -- hopefully with a step in the right direction! --------
 
   13    -544.6363597408      3.34E-07  Gap = 0.03 eV  Normal BFGS step
 
   ------------------- Entering Geometric Direct Minimization ------------------
   GDM::trust : actual energy change is        1.250555214937776E-012
   GDM::trust : predicted energy change was   -2.109046871227683E-012
   GDM::trust : updated trust radius is        0.108900000000000     
   GDM::WARNING energy changes are now smaller than effective accuracy.
   GDM::        calculation will continue, but THRESH should be increased
   GDM::        or SCF_CONVERGENCE decreased.
   GDM::        effective_thresh =   3.600000000000000E-010
   GDM:         diagonal hessian shift is      0.000000000000000E+000
   GDM::PreWSS: input subspace size is                 12
   GDM::PreWSS: working subspace size set to           12
   GDM::PrEWSS: # of linearly dependent vectors =           11
   GDM::PrEWSS: Max dev from orthonormality =   1.819516759482553E-013
   GDM::BFGS:   lowest Hinv e-value    0.243029274301065     
   GDM::BFGS:   highest Hinv e-value    1.59806312869832     
   GDM::      : max scaling in EWCs is          1.99678867941773     
   GDM::      : max rotation in step is       -2.561959856704406E-007
   GDM::        grad.step =  -1.953499047299179E-012
   ------- Leaving GDM -- hopefully with a step in the right direction! --------
 
   14    -544.6363597408      6.81E-07  Gap = 0.03 eV  Normal BFGS step
 
   ------------------- Entering Geometric Direct Minimization ------------------
   GDM::trust : actual energy change is       -3.296918293926865E-012
   GDM::trust : predicted energy change was   -2.930248570948770E-012
   GDM::trust : updated trust radius is        0.330000000000000     
   GDM:         diagonal hessian shift is      0.000000000000000E+000
   GDM::PreWSS: input subspace size is                 13
   GDM::PreWSS: working subspace size set to           13
   GDM::PrEWSS: # of linearly dependent vectors =           12
   GDM::PrEWSS: Max dev from orthonormality =   5.341144193593550E-013
   GDM::BFGS:   lowest Hinv e-value    0.243284532179997     
   GDM::BFGS:   highest Hinv e-value    1.64618622916536     
   GDM::      : max scaling in EWCs is          1.99679043806068     
   GDM::      : max rotation in step is        6.494126301058128E-008
   GDM::        grad.step =  -1.161781687758137E-013
   ------- Leaving GDM -- hopefully with a step in the right direction! --------
 
   15    -544.6363597408      6.31E-08  Gap = 0.03 eV  Normal BFGS step
 
   ------------------- Entering Geometric Direct Minimization ------------------
   GDM::trust : actual energy change is       -2.387423592153937E-012
   GDM::trust : predicted energy change was   -1.742672531637205E-013
   GDM::trust : updated trust radius is        0.330000000000000     
   GDM:         diagonal hessian shift is      0.000000000000000E+000
   GDM::PreWSS: input subspace size is                 14
   GDM::PreWSS: working subspace size set to           14
   GDM::PrEWSS: # of linearly dependent vectors =           13
   GDM::PrEWSS: Max dev from orthonormality =   2.730260462158185E-012
   GDM::BFGS:   lowest Hinv e-value    0.242736866284345     
   GDM::BFGS:   highest Hinv e-value    1.47185567310364     
   GDM::      : max scaling in EWCs is          1.99679029525737     
   GDM::      : max rotation in step is        3.840652803516661E-008
   GDM::        grad.step =  -6.854843560492425E-014
   ------- Leaving GDM -- hopefully with a step in the right direction! --------
 
   16    -544.6363597408      5.98E-08  Gap = 0.03 eV  Normal BFGS step
 
   ------------------- Entering Geometric Direct Minimization ------------------
   GDM::trust : actual energy change is        1.250555214937776E-012
   GDM::trust : predicted energy change was   -1.028226534073864E-013
   GDM::trust : updated trust radius is        0.108900000000000     
   GDM::WARNING energy changes are now smaller than effective accuracy.
   GDM::        calculation will continue, but THRESH should be increased
   GDM::        or SCF_CONVERGENCE decreased.
   GDM::        effective_thresh =   3.600000000000000E-010
   GDM:         diagonal hessian shift is      0.000000000000000E+000
   GDM::PreWSS: input subspace size is                 15
   GDM::PreWSS: working subspace size set to           15
   GDM::PrEWSS: # of linearly dependent vectors =           14
   GDM::PrEWSS: Max dev from orthonormality =   9.081976490299404E-012
   GDM::BFGS:   lowest Hinv e-value    0.242868360081261     
   GDM::BFGS:   highest Hinv e-value    1.78648880545454     
   GDM::      : max scaling in EWCs is          1.99679022451325     
   GDM::      : max rotation in step is        3.438666321120917E-008
   GDM::        grad.step =  -2.676792824369446E-014
   ------- Leaving GDM -- hopefully with a step in the right direction! --------
 
   17    -544.6363597408      5.02E-08  Gap = 0.03 eV  Normal BFGS step
 
   ------------------- Entering Geometric Direct Minimization ------------------
   GDM::trust : actual energy change is       -1.136868377216160E-013
   GDM::trust : predicted energy change was   -4.015189236554168E-014
   GDM::trust : updated trust radius is        0.330000000000000     
   GDM:         diagonal hessian shift is      0.000000000000000E+000
   GDM::PreWSS: input subspace size is                 16
   GDM::PreWSS: working subspace size set to           16
   GDM::PrEWSS: # of linearly dependent vectors =           15
   GDM::PrEWSS: Max dev from orthonormality =   6.589107731658217E-012
   GDM::BFGS:   lowest Hinv e-value    0.242804892945849     
   GDM::BFGS:   highest Hinv e-value    1.39474995055851     
   GDM::      : max scaling in EWCs is          1.99679041340851     
   GDM::      : max rotation in step is        2.093571737942695E-008
   GDM::        grad.step =  -3.251487960054947E-014
   ------- Leaving GDM -- hopefully with a step in the right direction! --------
 
   18    -544.6363597408      6.27E-08  Gap = 0.03 eV  Normal BFGS step
 
   ------------------- Entering Geometric Direct Minimization ------------------
   GDM::trust : actual energy change is        2.273736754432321E-013
   GDM::trust : predicted energy change was   -4.877231940082418E-014
   GDM::trust : updated trust radius is        0.108900000000000     
   GDM::WARNING energy changes are now smaller than effective accuracy.
   GDM::        calculation will continue, but THRESH should be increased
   GDM::        or SCF_CONVERGENCE decreased.
   GDM::        effective_thresh =   3.600000000000000E-010
   GDM:         diagonal hessian shift is      0.000000000000000E+000
   GDM::PreWSS: input subspace size is                 17
   GDM::PreWSS: working subspace size set to           15
   GDM::PrEWSS: # of linearly dependent vectors =           12
   GDM::PrEWSS: Max dev from orthonormality =   6.311804551240030E-011
   GDM::BFGS:   lowest Hinv e-value    0.246603632541439     
   GDM::BFGS:   highest Hinv e-value    1.76719447677046     
   GDM::      : max scaling in EWCs is          1.99679029829820     
   GDM::      : max rotation in step is       -5.729553707566027E-010
   GDM::        grad.step =  -1.042986767404105E-017
   ------- Leaving GDM -- hopefully with a step in the right direction! --------
 
   19    -544.6363597408      7.02E-10 Convergence criterion met
 ---------------------------------------
 One-Electron    Energy = -1615.8667150592
 Total Coulomb   Energy =   713.6961859211
 Alpha Exchange  Energy =    -5.9741187750
 Beta  Exchange  Energy =    -5.9741187750
 DFT   Exchange  Energy =   -47.9360089517
 DFT Correlation Energy =    -3.2315051519
 Nuclear Repu.   Energy =   420.6499210510
 Nuclear Attr.   Energy = -2111.2262215121
 Kinetic         Energy =   495.3595064529
 SCF time:  CPU 120.83 s  wall 12.06 s
 SCF   energy in the final basis set = -544.6363597408
 Total energy in the final basis set = -544.6363597408
 
 --------------------------------------------------------------
 
                    Orbital Energies (a.u.)
 --------------------------------------------------------------
 
 Alpha MOs
 -- Occupied --
-19.214 -19.214 -19.214 -19.214 -19.177 -19.177  -2.105  -2.102
 -1.343  -1.318  -1.309  -1.306  -1.304  -1.299  -1.060  -1.048
 -0.930  -0.919  -0.836  -0.836  -0.458  -0.453  -0.445  -0.442
 -0.426  -0.423  -0.402  -0.391  -0.383  -0.370  -0.361  -0.347
 -0.332  -0.312  -0.282  -0.274
 -- Virtual --
 -0.149  -0.119  -0.116  -0.101  -0.072  -0.054  -0.044  -0.042
 -0.013  -0.009  -0.003   0.007   0.008   0.011   0.022   0.028
  0.041   0.043   0.049   0.095   0.106   0.116   0.128   0.141
  0.141   0.152   0.175   0.178   0.179   0.185   0.186   0.196
  0.201   0.219   0.219   0.228   0.231   0.232   0.239   0.252
  0.254   0.256   0.287   0.290   0.295   0.307   0.311   0.342
  0.350   0.368   0.376   0.401   0.417   0.486   0.503   0.523
  0.581   0.634   0.881   1.043   1.110   1.113   1.121   1.144
  1.150   1.169   1.172   1.181   1.193   1.208   1.209   1.231
  1.233   1.256   1.272   1.275   1.281   1.284   1.521   1.526
  1.545   1.557   1.643   1.676   1.713   1.714   1.745   1.753
  1.753   1.764   1.771   1.772   1.776   1.799   1.813   1.841
  1.860   1.864   1.867   1.868   1.871   1.896   1.900   1.914
  1.917   1.942   2.136   2.236   2.293   2.293   2.302   2.303
  3.118   3.132  13.904  15.055
 --------------------------------------------------------------
 
          Ground-State Mulliken Net Atomic Charges

     Atom                 Charge (a.u.)
  ----------------------------------------
      1 Zr                    1.876713
      2 O                    -0.456509
      3 O                    -0.456536
      4 O                    -0.963693
      5 O                    -0.963673
      6 Zr                    1.876652
      7 O                    -0.455687
      8 O                    -0.457267
  ----------------------------------------
  Sum of atomic charges =     0.000000

 -----------------------------------------------------------------
                    Cartesian Multipole Moments
 -----------------------------------------------------------------
    Charge (ESU x 10^10)
                 0.0000
    Dipole Moment (Debye)
         X      -0.0005      Y      -0.0253      Z       0.0027
       Tot       0.0254
    Quadrupole Moments (Debye-Ang)
        XX    -115.5108     XY      -0.0504     YY     -69.0703
        XZ       0.0039     YZ       0.0017     ZZ     -81.2937
    Octopole Moments (Debye-Ang^2)
       XXX      -0.0146    XXY      -0.1315    XYY      -0.0030
       YYY       0.0484    XXZ       0.0220    XYZ      -0.0019
       YYZ      -0.0033    XZZ      -0.0024    YZZ       0.0651
       ZZZ      -0.0257
    Hexadecapole Moments (Debye-Ang^3)
      XXXX   -2947.7290   XXXY      -3.9854   XXYY    -421.2188
      XYYY      -2.5449   YYYY    -140.3535   XXXZ       0.0251
      XXYZ       0.0061   XYYZ       0.0044   YYYZ       0.0097
      XXZZ    -390.3963   XYZZ      -0.7738   YYZZ     -62.8529
      XZZZ       0.0131   YZZZ       0.0129   ZZZZ    -238.5868
 -----------------------------------------------------------------
 Calculating analytic gradient of the SCF energy
 Gradient of SCF Energy
            1           2           3           4           5           6
    1  -0.0000483   0.0000496  -0.0000509  -0.0000044  -0.0000039   0.0000445
    2  -0.0000320   0.0000699  -0.0000829  -0.0000114  -0.0000175   0.0001032
    3   0.0000082  -0.0000037  -0.0000042   0.0000490  -0.0000457  -0.0000005
            7           8
    1  -0.0000204   0.0000338
    2   0.0000069  -0.0000362
    3   0.0000042  -0.0000071
 Max gradient component =       1.032E-04
 RMS gradient           =       4.126E-05
 Gradient time:  CPU 27.89 s  wall 3.63 s
 Geometry Optimization Parameters
   NAtoms,    NIC,     NZ,  NCons,   NDum,   NFix, NCnnct, MaxDiis
        8      73       0       0       0       0       0       0

 Cartesian Hessian Update
 Hessian Updated using BFGS Update


** GEOMETRY OPTIMIZATION IN DELOCALIZED INTERNAL COORDINATES **
   Searching for a Minimum

   Optimization Cycle:  26

                       Coordinates (Angstroms)
     ATOM                X               Y               Z
      1  Zr        1.5247513591    0.0034106081    0.0002837982
      2  O         3.3595198626    0.7581317827   -0.0002266610
      3  O         3.3634998820   -0.7403986005   -0.0003748197
      4  O         0.0000999816   -0.0022994822   -1.3205299632
      5  O        -0.0000621279   -0.0025698200    1.3210560451
      6  Zr       -1.5247067996   -0.0068375100    0.0001631275
      7  O        -3.3628829833   -0.7537862784    0.0000040295
      8  O        -3.3601491747    0.7444693003   -0.0003755563
   Point Group: c1    Number of degrees of freedom:    18


   Energy is   -544.636359741

 Hessian Updated using BFGS Update

 18 Hessian modes will be used to form the next step
  Hessian Eigenvalues:
     0.004122    0.023497    0.039262    0.039427    0.059538    0.119067
     0.153930    0.160942    0.183681    0.191748    0.193918    0.210864
     0.237331    0.291599    0.333628    0.354759    0.799180    0.883028

 Minimum Search - Taking Simple RFO Step
 Searching for Lamda that Minimizes Along All modes
 Value Taken    Lamda =   0.00000000
 Step Taken.  Stepsize is  0.001691

                             Maximum     Tolerance    Cnvgd?
         Gradient           0.000133      0.000300     YES
         Displacement       0.001497      0.001200      NO
         Energy change     -0.000001      0.000001     YES


                       Distance Matrix (Angstroms)
             Zr(  1)   O (  2)   O (  3)   O (  4)   O (  5)   Zr(  6)
   O (  2)  1.983930
   O (  3)  1.983494  1.498536
   O (  4)  2.017212  3.688788  3.687826
   O (  5)  2.017308  3.689342  3.688376  2.641586
   Zr(  6)  3.049475  4.943769  4.942942  2.017247  2.017255
   O (  7)  4.945939  6.890326  6.726396  3.690284  3.690267  1.984143
   O (  8)  4.940792  6.719683  6.885658  3.686698  3.687063  1.983258
             O (  7)
   O (  8)  1.498258
 
 Final energy is   -544.636359740767     


 ******************************
 **  OPTIMIZATION CONVERGED  **
 ******************************

                       Coordinates (Angstroms)
     ATOM                X               Y               Z
      1  Zr        1.5247513591    0.0034106081    0.0002837982
      2  O         3.3595198626    0.7581317827   -0.0002266610
      3  O         3.3634998820   -0.7403986005   -0.0003748197
      4  O         0.0000999816   -0.0022994822   -1.3205299632
      5  O        -0.0000621279   -0.0025698200    1.3210560451
      6  Zr       -1.5247067996   -0.0068375100    0.0001631275
      7  O        -3.3628829833   -0.7537862784    0.0000040295
      8  O        -3.3601491747    0.7444693003   -0.0003755563

Z-matrix Print:
$molecule
0 1
Zr
O  1 1.983258
O  2 1.498258 1 67.843646
O  1 2.017247 2 134.308191 3 -113.779204 0
Zr 4 2.017212 1 98.200672 2 -147.742242 0
O  5 1.983494 4 134.377777 1 -148.060863 0
O  6 1.498536 5 67.823544 4 -113.590454 0
O  1 2.017255 2 134.334572 3 113.758264 0
$end

 
 --------------------------------------------------------------
 
                    Orbital Energies (a.u.)
 --------------------------------------------------------------
 
 Alpha MOs
 -- Occupied --
-19.214 -19.214 -19.214 -19.214 -19.177 -19.177  -2.105  -2.102
 -1.343  -1.318  -1.309  -1.306  -1.304  -1.299  -1.060  -1.048
 -0.930  -0.919  -0.836  -0.836  -0.458  -0.453  -0.445  -0.442
 -0.426  -0.423  -0.402  -0.391  -0.383  -0.370  -0.361  -0.347
 -0.332  -0.312  -0.282  -0.274
 -- Virtual --
 -0.149  -0.119  -0.116  -0.101  -0.072  -0.054  -0.044  -0.042
 -0.013  -0.009  -0.003   0.007   0.008   0.011   0.022   0.028
  0.041   0.043   0.049   0.095   0.106   0.116   0.128   0.141
  0.141   0.152   0.175   0.178   0.179   0.185   0.186   0.196
  0.201   0.219   0.219   0.228   0.231   0.232   0.239   0.252
  0.254   0.256   0.287   0.290   0.295   0.307   0.311   0.342
  0.350   0.368   0.376   0.401   0.417   0.486   0.503   0.523
  0.581   0.634   0.881   1.043   1.110   1.113   1.121   1.144
  1.150   1.169   1.172   1.181   1.193   1.208   1.209   1.231
  1.233   1.256   1.272   1.275   1.281   1.284   1.521   1.526
  1.545   1.557   1.643   1.676   1.713   1.714   1.745   1.753
  1.753   1.764   1.771   1.772   1.776   1.799   1.813   1.841
  1.860   1.864   1.867   1.868   1.871   1.896   1.900   1.914
  1.917   1.942   2.136   2.236   2.293   2.293   2.302   2.303
  3.118   3.132  13.904  15.055
 --------------------------------------------------------------
 
          Ground-State Mulliken Net Atomic Charges

     Atom                 Charge (a.u.)
  ----------------------------------------
      1 Zr                    1.876713
      2 O                    -0.456509
      3 O                    -0.456536
      4 O                    -0.963693
      5 O                    -0.963673
      6 Zr                    1.876652
      7 O                    -0.455687
      8 O                    -0.457267
  ----------------------------------------
  Sum of atomic charges =     0.000000

 -----------------------------------------------------------------
                    Cartesian Multipole Moments
 -----------------------------------------------------------------
    Charge (ESU x 10^10)
                 0.0000
    Dipole Moment (Debye)
         X      -0.0005      Y      -0.0253      Z       0.0027
       Tot       0.0254
    Quadrupole Moments (Debye-Ang)
        XX    -115.5108     XY      -0.0504     YY     -69.0703
        XZ       0.0039     YZ       0.0017     ZZ     -81.2937
    Octopole Moments (Debye-Ang^2)
       XXX      -0.0146    XXY      -0.1315    XYY      -0.0030
       YYY       0.0484    XXZ       0.0220    XYZ      -0.0019
       YYZ      -0.0033    XZZ      -0.0024    YZZ       0.0651
       ZZZ      -0.0257
    Hexadecapole Moments (Debye-Ang^3)
      XXXX   -2947.7290   XXXY      -3.9854   XXYY    -421.2188
      XYYY      -2.5449   YYYY    -140.3535   XXXZ       0.0251
      XXYZ       0.0061   XYYZ       0.0044   YYYZ       0.0097
      XXZZ    -390.3963   XYZZ      -0.7738   YYZZ     -62.8529
      XZZZ       0.0131   YZZZ       0.0129   ZZZZ    -238.5868
 -----------------------------------------------------------------
Archival summary:
1\1\hpc3748\OPT\ProcedureUnspecified\BasisUnspecified\r26(+,1)\liqiuy\FriJan1719:13:192020FriJan1719:13:192020\0\\#,OPT,ProcedureUnspecified,BasisUnspecified,\\56,1\Zr\O,1,1.98326\O,2,1.49826,1,67.8436\O,1,2.01725,2,134.308,3,-113.779,0\Zr,4,2.01721,1,98.2007,2,-147.742,0\O,5,1.98349,4,134.378,1,-148.061,0\O,6,1.49854,5,67.8235,4,-113.59,0\O,1,2.01725,2,134.335,3,113.758,0\\\@

 Total job time:  905.15s(wall), 8091.98s(cpu) 
 Fri Jan 17 19:13:19 2020

        *************************************************************
        *                                                           *
        *  Thank you very much for using Q-Chem.  Have a nice day.  *
        *                                                           *
        *************************************************************


0 sent ACK to 0 
now end server 0 ... 
cleanup process ... done
