
Running Job 1 of 2 ZrOx.in
qchem ZrOx.in_18414.0 /tmp/5732512.priya/ZrOx.save/ 1
/usr/usc/qchem/4.4/bin/mpi/mpirun_qchem -machinefile /usr/usc/qchem/4.4/bin/mpi/machines -np 1 /usr/usc/qchem/4.4/exe/qcprog.exe ZrOx.in_18414.0 /tmp/5732512.priya/ZrOx.save/

Process 0 of 1 is on hpc3463.hpcc.usc.edu - thread support 0
initial socket setup ...start
initial socket setup ...done 
now start server 0 ... 
Check license passed

                  Welcome to Q-Chem
     A Quantum Leap Into The Future Of Chemistry


 Q-Chem 4.4, Q-Chem, Inc., Pleasanton, CA (2016)

 Y. Shao,  Z. Gan,  E. Epifanovsky,  A. T. B. Gilbert,  M. Wormit,  
 J. Kussmann,  A. W. Lange,  A. Behn,  J. Deng,  X. Feng,  D. Ghosh,  
 M. Goldey,  P. R. Horn,  L. D. Jacobson,  I. Kaliman,  F.Rob,  
 R. Z. Khaliullin,  T. Kus,  A. Landau,  J. Liu,  E. I. Proynov,  Y. M. Rhee,  
 R. M. Richard,  M. A. Rohrdanz,  R. P. Steele,  E. J. Sundstrom,  
 H. L. Woodcock III,  P. M. Zimmerman,  D. Zuev,  B. Albrecht,  E. Alguire,  
 B. Austin,  S. A. Baeppler,  G. J. O. Beran,  Y. A. Bernard,  E. Berquist,  
 K. Brandhorst,  K. B. Bravaya,  S. T. Brown,  D. Casanova,  C.-M. Chang,  
 Y. Chen,  S. H. Chien,  K. D. Closser,  M. P. Coons,  D. L. Crittenden,  
 S. Dasgupta,  M. Diedenhofen,  R. A. DiStasio Jr.,  H. Do,  A. D. Dutoi,  
 R. G. Edgar,  P.-T. Fang,  S. Fatehi,  Q. Feng,  L. Fusti-Molnar,  
 A. Ghysels,  A. Golubeva-Zadorozhnaya,  J. Gomes,  A. Gunina,  
 M. W. D. Hanson-Heine,  P. H. P. Harbach,  A. W. Hauser,  E. G. Hohenstein,  
 Z. C. Holden,  K. Hui,  T.-C. Jagau,  H. Ji,  B. Kaduk,  K. Khistyaev,  
 Jaehoon Kim,  Jihan Kim,  R. A. King,  P. Klunzinger,  D. Kosenkov,  
 T. Kowalczyk,  C. M. Krauter,  A. Kunitsa,  K. U. Lao,  A. Laurent,  
 K. V. Lawler,  D. Lefrancois,  S. Lehtola,  S. V. Levchenko,  C. Y. Lin,  
 Y.-S. Lin,  F. Liu,  E. Livshits,  R. C. Lochan,  A. Luenser,  P. Manohar,  
 S. F. Manzer,  S.-P. Mao,  Y. Mao,  N. Mardirossian,  A. V. Marenich,  
 L. A. Martinez-Martinez,  S. A. Maurer,  N. J. Mayhall,  J.-M. Mewes,  
 A. F. Morrison,  K. Nanda,  C. M. Oana,  R. Olivares-Amaya,  D. P. O'Neill,  
 J. A. Parkhill,  T. M. Perrine,  R. Peverati,  P. A. Pieniazek,  F. Plasser,  
 A. Prociuk,  D. R. Rehn,  E. Rosta,  N. J. Russ,  N. Sergueev,  
 S. M. Sharada,  S. Sharma,  D. W. Small,  A. Sodt,  T. Stauch,  T. Stein,  
 D. Stuck,  Y.-C. Su,  A. J. W. Thom,  T. Tsuchimochi,  L. Vogt,  O. Vydrov,  
 T. Wang,  M. A. Watson,  J. Wenzel,  A. White,  C. F. Williams,  
 V. Vanovschi,  S. Yeganeh,  S. R. Yost,  Z.-Q. You,  I. Y. Zhang,  X. Zhang,  
 Y. Zhao,  B. R. Brooks,  G. K. L. Chan,  D. M. Chipman,  C. J. Cramer,  
 W. A. Goddard III,  M. S. Gordon,  W. J. Hehre,  A. Klamt,  
 H. F. Schaefer III,  M. W. Schmidt,  C. D. Sherrill,  D. G. Truhlar,  
 A. Warshel,  X. Xu,  A. Aspuru-Guzik,  R. Baer,  A. T. Bell,  N. A. Besley,  
 J.-D. Chai,  A. Dreuw,  B. D. Dunietz,  T. R. Furlani,  S. R. Gwaltney,  
 C.-P. Hsu,  Y. Jung,  J. Kong,  D. S. Lambrecht,  W. Liang,  C. Ochsenfeld,  
 V. A. Rassolov,  L. V. Slipchenko,  J. E. Subotnik,  T. Van Voorhis,  
 J. M. Herbert,  A. I. Krylov,  P. M. W. Gill,  M. Head-Gordon

 Contributors to earlier versions of Q-Chem not listed above: 
 R. D. Adamson,  J. Baker,  E. F. C. Byrd,  A. K. Chakraborty,  C.-L. Cheng,  
 H. Dachsel,  R. J. Doerksen,  G. Hawkins,  A. Heyden,  S. Hirata,  
 G. Kedziora,  F. J. Keil,  C. Kelley,  P. P. Korambath,  W. Kurlancheek,  
 A. M. Lee,  M. S. Lee,  D. Liotard,  I. Lotan,  P. E. Maslen,  N. Nair,  
 D. Neuhauser,  R. Olson,  B. Peters,  J. Ritchie,  N. E. Schultz,  
 N. Shenvi,  A. C. Simmonett,  K. S. Thanthiriwatte,  Q. Wu,  W. Zhang

 Please cite Q-Chem as follows:
 Y. Shao et al., Mol. Phys. 113, 184-215 (2015)
 DOI: 10.1080/00268976.2014.952696

 Q-Chem 4.4.1 for Intel X86 Linux

 Parts of Q-Chem use Armadillo 5.200.1 (Boston Tea Smuggler).
 http://arma.sourceforge.net/

 Q-Chem begins on Fri Jan 17 18:57:11 2020  

Host: 
0

     Scratch files written to /tmp/5732512.priya/ZrOx.save//
 Jul2716 11668_ 21447  21445 5558   
 Parallel job on  1  processors
Processing $rem in /usr/usc/qchem/4.4/config/preferences.
 MEM_TOTAL  2000 

Checking the input file for inconsistencies... 	...done.

--------------------------------------------------------------
User input:
--------------------------------------------------------------
$comment
--------------------------------------------------------
A SINGLE POINT DFT CALCULATION WITH BASIS SET PROJECTION
--------------------------------------------------------
$end

$molecule
0 1
Zr 1.55058 -0.29708 0.20055
Zr -0.51776 1.49070 0.19952
Zr -1.03228 -1.19416 0.19988
S 1.35841 1.57024 -1.12209
S -2.04020 0.39034 -1.12132
S 0.68144 -1.95978 -1.12322
S 0.00005 -0.00037 1.91039
$end

$rem
JOBTYPE   SP
METHOD   B3LYP
BASIS   GEN
ECP   GEN
MAX_SCF_CYCLES   200
SCF_CONVERGENCE 8
SCF_PRINT 1
PDB_PRINT 2
THRESH 14
VARTHRESH 14
INCDFT FALSE
SYMMETRY False
Sym_ignore True
SCF_ALGORITHM GDM
XC_GRID 000128000302
DFT_D           EMPIRICAL_GRIMME3
DFT_D3_S6       1000
DFT_D3_RS6     1261
DFT_D3_S8      1703
DFT_D3_3BODY    FALSE
$end

$basis
O
6-31+G**
****
S
6-31+G**
****
Zr
LanL2DZ
****
$end

$ecp
Zr
LanL2DZ
****
$end

--------------------------------------------------------------
 ----------------------------------------------------------------
             Standard Nuclear Orientation (Angstroms)
    I     Atom           X                Y                Z
 ----------------------------------------------------------------
    1      Zr      1.5505800000    -0.2970800000     0.2005500000
    2      Zr     -0.5177600000     1.4907000000     0.1995200000
    3      Zr     -1.0322800000    -1.1941600000     0.1998800000
    4      S       1.3584100000     1.5702400000    -1.1220900000
    5      S      -2.0402000000     0.3903400000    -1.1213200000
    6      S       0.6814400000    -1.9597800000    -1.1232200000
    7      S       0.0000500000    -0.0003700000     1.9103900000
 ----------------------------------------------------------------
 Nuclear Repulsion Energy =   782.0782988978 hartrees
 There are       50 alpha and       50 beta electrons

 Q-Chem warning in module /home/scratch/svnadmin/11668_zgan/qchem/forms1/BasisType.C, line 1419:

 Setting pure/cartesian flag to 2111 for general basis


 Requested basis set is non-standard
 There are 48 shells and 154 basis functions

 Total QAlloc Memory Limit   2000 MB
 Mega-Array Size        61 MB
 MEM_STATIC part        62 MB

                       Distance Matrix (Angstroms)
             Zr(  1)   Zr(  2)   Zr(  3)   S (  4)   S (  5)   S (  6)
   Zr(  2)  2.733896
   Zr(  3)  2.734213  2.733716
   S (  4)  2.296343  2.296300  3.886504
   S (  5)  3.887620  2.296352  2.296108  3.597598
   S (  6)  2.296158  3.885040  2.296433  3.594347  3.595885
   S (  7)  2.327173  2.327766  2.327377  3.675309  3.675124  3.675101

 
 A cutoff of  1.0D-14 yielded   1152 shell pairs
 There are     12008 function pairs (     13653 Cartesian)
 
 -------------------------------------------------------
 OpenMP Integral Computing Module                       
 Release: version 1.0, May 2013, Q-Chem Inc. Pittsburgh 
 -------------------------------------------------------
 Integral Job Info:
 Integral job number is                      11
 Integral operator is                         1
 short-range coefficients                     0
 long-range coefficients              100000000
 Omega coefficients                           0
 if combine SR and LR in K                    0
 Integral screening is                        0
 Integral computing path is                   2
 max size of driver memory is            800000
 size of driver memory is                593474
 size of scratch memory is             15166112
 max col of scratch BK array               1296
 max len of scratch array in speh3          155
 max len of scratch index in speh4           18
 max int batch size is                      520
 min int batch size is                       52
 fixed nKL is                                52
 max L of basis functions is                  2
 order of int derivative is                   0
 number of shells is                         48
 number of basis is                         164
 number of cartesian basis is               164
 number of contracted shell pairs          1152
 number of primitive shell pairs           6321
 maxK2 (contraction) of shell pair           36
 max number of K2 of shell pair               1
 max number of CS2 of shell pair             62
 max number of PS2 of shell pair            372
 mem total for path MDJ                   44920
 -------------------------------------------------------
 Requested basis set is non-standard
 Compound shells will be simplified
 There are 64 shells and 154 basis functions
 A cutoff of  1.0D-14 yielded   2026 shell pairs
 There are     11960 function pairs (     13605 Cartesian)
 Smallest overlap matrix eigenvalue = 3.50E-04

 Scale SEOQF with 1.000000e-01/1.000000e-01/1.000000e-01

 Standard Electronic Orientation quadrupole field applied
 Nucleus-field energy     =     0.0000000030 hartrees
 Guess MOs from core Hamiltonian diagonalization
 A restricted hybrid HF-DFT SCF calculation will be
 performed using Geometric Direct Minimization
 Exchange:     0.2000 Hartree-Fock + 0.0800 Slater + 0.7200 B88
 Correlation:  0.1900 VWN1RPA + 0.8100 LYP
 Using Euler-Maclaurin-Lebedev (128,302) quadrature formula
 Dispersion:   Grimme D3
 SCF converges when RMS gradient is below 1.0E-08
 Maximum number of minimization steps = 200
 using 12 threads for integral computing 
 -------------------------------------------------------
 OpenMP BLAS3 based DFT computing Module                
 Release: version 1.0, May 2013, Q-Chem Inc. Pittsburgh 
 -------------------------------------------------------
 
   ------------------- Entering Geometric Direct Minimization ------------------
   GDM:         diagonal hessian shift is      0.000000000000000E+000
   GDM::PreWSS: input subspace size is                  1
   GDM::PreWSS: working subspace size set to            1
   GDM::PrEWSS: # of linearly dependent vectors =            0
   GDM::PrEWSS: Max dev from orthonormality =   0.000000000000000E+000
   GDM::BFGS:   lowest Hinv e-value     1.00000000000000     
   GDM::BFGS:   highest Hinv e-value    1.00000000000000     
   GDM::      : max scaling in EWCs is          1.41421356237309     
   GDM::      : max rotation in step is        0.109494146966606     
   GDM::        grad.step =   -2.89629558379078     
   ------- Leaving GDM -- hopefully with a step in the right direction! --------
 
 ---------------------------------------
  Cycle       Energy        RMS Gradient
 ---------------------------------------
    1   -1691.4547050168      2.06E+00  Gap = 0.00 eV  Descent step
 
   ------------------- Entering Geometric Direct Minimization ------------------
   GDM::trust : actual energy change is        -5.68753290330483     
   GDM::trust : predicted energy change was   -0.163350000000000     
   GDM::trust : updated trust radius is        0.330000000000000     
   GDM:         diagonal hessian shift is      0.000000000000000E+000
   GDM::PreWSS: input subspace size is                  2
   GDM::PreWSS: working subspace size set to            2
   GDM::PrEWSS: # of linearly dependent vectors =            0
   GDM::PrEWSS: Max dev from orthonormality =   7.832623438730479E-014
   GDM::BFGS:   lowest Hinv e-value    0.499145960812604     
   GDM::BFGS:   highest Hinv e-value    1.94805912353193     
   GDM::      : max scaling in EWCs is          1.41421356237309     
   GDM::      : max rotation in step is        9.240945232849043E-002
   GDM::        grad.step =   -2.72834818806452     
   ------- Leaving GDM -- hopefully with a step in the right direction! --------
 
    2   -1697.1422379201      1.68E+00  Gap = 0.00 eV  Descent step
 
   ------------------- Entering Geometric Direct Minimization ------------------
   GDM::trust : actual energy change is        -5.26704260686620     
   GDM::trust : predicted energy change was   -0.152986172311973     
   GDM::trust : updated trust radius is        0.330000000000000     
   GDM::search:  On step            1 .  The current bracket is:
       left   : x =  0.0000E+00, e =     -1697.1422379201, g = -0.6862E+01
       current: x =  0.3976E+00, e =     -1702.4092805269, g = -0.6322E+01
       right  : x =  0.1000E+04, e =      1000.0000000000, g =  0.1000E+04
       next   : x =  0.3976E+01
   GDM::      : max rotation in step is        0.924094523284904     
   ------- Leaving GDM -- hopefully with a step in the right direction! --------
 
    3   -1702.4092805269      3.74E-01  Gap = 0.00 eV  Line search: understep
 
   ------------------- Entering Geometric Direct Minimization ------------------
   GDM::trust : actual energy change is        -9.52958130341403     
   GDM::trust : predicted energy change was   -0.152986172311973     
   GDM::trust : updated trust radius is        0.330000000000000     
   GDM:         diagonal hessian shift is      0.000000000000000E+000
   GDM::PreWSS: input subspace size is                  3
   GDM::PreWSS: working subspace size set to            3
   GDM::PrEWSS: # of linearly dependent vectors =            0
   GDM::PrEWSS: Max dev from orthonormality =   4.937716902020384E-014
   GDM::BFGS:   lowest Hinv e-value    0.124941442108841     
   GDM::BFGS:   highest Hinv e-value    2.96470335751175     
   GDM::      : max scaling in EWCs is          2.82842712474619     
   GDM::      : max rotation in step is       -0.303680134196219     
   GDM::        grad.step =   -3.38257980010065     
   ------- Leaving GDM -- hopefully with a step in the right direction! --------
 
    4   -1706.6718192235      3.40E+00  Gap = 0.00 eV  Descent step
 
   ------------------- Entering Geometric Direct Minimization ------------------
   GDM::trust : actual energy change is        -6.36412962940517     
   GDM::trust : predicted energy change was   -0.454510303802436     
   GDM::trust : updated trust radius is        0.330000000000000     
   GDM:         diagonal hessian shift is      0.000000000000000E+000
   GDM::PreWSS: input subspace size is                  4
   GDM::PreWSS: working subspace size set to            4
   GDM::PrEWSS: # of linearly dependent vectors =            0
   GDM::PrEWSS: Max dev from orthonormality =   1.358566037445996E-013
   GDM::BFGS:   lowest Hinv e-value    0.286433333641472     
   GDM::BFGS:   highest Hinv e-value    2.56258339502769     
   GDM::      : max scaling in EWCs is          2.82842712474619     
   GDM::      : max rotation in step is       -0.429084253465809     
   GDM::        grad.step =   -2.66060707991080     
   ------- Leaving GDM -- hopefully with a step in the right direction! --------
 
    5   -1713.0359488529      3.71E+00  Gap = 0.00 eV  Descent step
 
   ------------------- Entering Geometric Direct Minimization ------------------
   GDM::trust : actual energy change is        -4.95289414296622     
   GDM::trust : predicted energy change was   -0.232376858334703     
   GDM::trust : updated trust radius is        0.330000000000000     
   GDM:         diagonal hessian shift is      0.000000000000000E+000
   GDM::PreWSS: input subspace size is                  5
   GDM::PreWSS: working subspace size set to            5
   GDM::PrEWSS: # of linearly dependent vectors =            0
   GDM::PrEWSS: Max dev from orthonormality =   2.435985441140431E-013
   GDM::BFGS:   lowest Hinv e-value    0.384163342229580     
   GDM::BFGS:   highest Hinv e-value    2.49415037397151     
   GDM::      : max scaling in EWCs is          2.82842712474619     
   GDM::      : max rotation in step is        0.201537970395070     
   GDM::        grad.step =   -1.72959057660398     
   ------- Leaving GDM -- hopefully with a step in the right direction! --------
 
    6   -1717.9888429959      1.13E+00  Gap = 0.00 eV  Descent step
 
   ------------------- Entering Geometric Direct Minimization ------------------
   GDM::trust : actual energy change is        -3.29421459979221     
   GDM::trust : predicted energy change was   -0.174524084043310     
   GDM::trust : updated trust radius is        0.330000000000000     
   GDM:         diagonal hessian shift is      0.000000000000000E+000
   GDM::PreWSS: input subspace size is                  6
   GDM::PreWSS: working subspace size set to            6
   GDM::PrEWSS: # of linearly dependent vectors =            0
   GDM::PrEWSS: Max dev from orthonormality =   4.238068229689418E-013
   GDM::BFGS:   lowest Hinv e-value    0.297051268281822     
   GDM::BFGS:   highest Hinv e-value    2.76199356233528     
   GDM::      : max scaling in EWCs is          2.82842712474619     
   GDM::      : max rotation in step is       -0.208181364860614     
   GDM::        grad.step =   -1.51923800514224     
   ------- Leaving GDM -- hopefully with a step in the right direction! --------
 
    7   -1721.2830575957      1.11E+00  Gap = 0.00 eV  Descent step
 
   ------------------- Entering Geometric Direct Minimization ------------------
   GDM::trust : actual energy change is        -2.87732843596586     
   GDM::trust : predicted energy change was   -0.162405224628423     
   GDM::trust : updated trust radius is        0.330000000000000     
   GDM:         diagonal hessian shift is      0.000000000000000E+000
   GDM::PreWSS: input subspace size is                  7
   GDM::PreWSS: working subspace size set to            7
   GDM::PrEWSS: # of linearly dependent vectors =            0
   GDM::PrEWSS: Max dev from orthonormality =   2.673798682462092E-013
   GDM::BFGS:   lowest Hinv e-value    0.246530949175922     
   GDM::BFGS:   highest Hinv e-value    3.02536364534005     
   GDM::      : max scaling in EWCs is          2.82842712474619     
   GDM::      : max rotation in step is       -0.283542698863656     
   GDM::        grad.step =   -1.41535930804391     
   ------- Leaving GDM -- hopefully with a step in the right direction! --------
 
    8   -1724.1603860316      1.67E+00  Gap = 0.00 eV  Descent step
 
   ------------------- Entering Geometric Direct Minimization ------------------
   GDM::trust : actual energy change is        -2.56085309109812     
   GDM::trust : predicted energy change was   -0.187063386299715     
   GDM::trust : updated trust radius is        0.330000000000000     
   GDM:         diagonal hessian shift is      0.000000000000000E+000
   GDM::PreWSS: input subspace size is                  8
   GDM::PreWSS: working subspace size set to            8
   GDM::PrEWSS: # of linearly dependent vectors =            0
   GDM::PrEWSS: Max dev from orthonormality =   6.359149318235779E-013
   GDM::BFGS:   lowest Hinv e-value    0.213728120245406     
   GDM::BFGS:   highest Hinv e-value    3.31250343648900     
   GDM::      : max scaling in EWCs is          2.82842712474619     
   GDM::      : max rotation in step is       -0.175518483471715     
   GDM::        grad.step =   -1.16568018970046     
   ------- Leaving GDM -- hopefully with a step in the right direction! --------
 
    9   -1726.7212391227      6.64E-01  Gap = 0.00 eV  Descent step
 
   ------------------- Entering Geometric Direct Minimization ------------------
   GDM::trust : actual energy change is        -1.97841226707283     
   GDM::trust : predicted energy change was   -0.222650934890508     
   GDM::trust : updated trust radius is        0.330000000000000     
   GDM:         diagonal hessian shift is      0.000000000000000E+000
   GDM::PreWSS: input subspace size is                  9
   GDM::PreWSS: working subspace size set to            9
   GDM::PrEWSS: # of linearly dependent vectors =            0
   GDM::PrEWSS: Max dev from orthonormality =   9.853715066121538E-013
   GDM::BFGS:   lowest Hinv e-value    0.230511315400499     
   GDM::BFGS:   highest Hinv e-value    3.17249034498999     
   GDM::      : max scaling in EWCs is          2.82842712474619     
   GDM::      : max rotation in step is        0.160084149167367     
   GDM::        grad.step =  -0.753112614754482     
   ------- Leaving GDM -- hopefully with a step in the right direction! --------
 
   10   -1728.6996513898      3.91E-01  Gap = 0.00 eV  Descent step
 
   ------------------- Entering Geometric Direct Minimization ------------------
   GDM::trust : actual energy change is        -1.36213427021949     
   GDM::trust : predicted energy change was   -0.163357879410111     
   GDM::trust : updated trust radius is        0.330000000000000     
   GDM:         diagonal hessian shift is      0.000000000000000E+000
   GDM::PreWSS: input subspace size is                 10
   GDM::PreWSS: working subspace size set to           10
   GDM::PrEWSS: # of linearly dependent vectors =            0
   GDM::PrEWSS: Max dev from orthonormality =   9.908445591788606E-013
   GDM::BFGS:   lowest Hinv e-value    0.261500039142125     
   GDM::BFGS:   highest Hinv e-value    3.09103400138354     
   GDM::      : max scaling in EWCs is          2.82842712474619     
   GDM::      : max rotation in step is        7.997821663582164E-002
   GDM::        grad.step =  -0.561064874890260     
   ------- Leaving GDM -- hopefully with a step in the right direction! --------
 
   11   -1730.0617856600      2.95E-01  Gap = 0.00 eV  Descent step
 
   ------------------- Entering Geometric Direct Minimization ------------------
   GDM::trust : actual energy change is        -1.00496210882716     
   GDM::trust : predicted energy change was   -0.158094454117971     
   GDM::trust : updated trust radius is        0.330000000000000     
   GDM:         diagonal hessian shift is      0.000000000000000E+000
   GDM::PreWSS: input subspace size is                 11
   GDM::PreWSS: working subspace size set to           11
   GDM::PrEWSS: # of linearly dependent vectors =            0
   GDM::PrEWSS: Max dev from orthonormality =   1.306500047038028E-012
   GDM::BFGS:   lowest Hinv e-value    0.305964763635983     
   GDM::BFGS:   highest Hinv e-value    3.14911331060768     
   GDM::      : max scaling in EWCs is          2.82842712474619     
   GDM::      : max rotation in step is        7.420794708114586E-002
   GDM::        grad.step =  -0.430308106713436     
   ------- Leaving GDM -- hopefully with a step in the right direction! --------
 
   12   -1731.0667477688      1.86E-01  Gap = 0.00 eV  Descent step
 
   ------------------- Entering Geometric Direct Minimization ------------------
   GDM::trust : actual energy change is       -0.749553776123093     
   GDM::trust : predicted energy change was   -0.158125936313879     
   GDM::trust : updated trust radius is        0.330000000000000     
   GDM:         diagonal hessian shift is      0.000000000000000E+000
   GDM::PreWSS: input subspace size is                 12
   GDM::PreWSS: working subspace size set to           12
   GDM::PrEWSS: # of linearly dependent vectors =            0
   GDM::PrEWSS: Max dev from orthonormality =   2.443767410653663E-012
   GDM::BFGS:   lowest Hinv e-value    0.307024968769425     
   GDM::BFGS:   highest Hinv e-value    3.20467989177721     
   GDM::      : max scaling in EWCs is          2.82842712474619     
   GDM::      : max rotation in step is        9.979221798090841E-002
   GDM::        grad.step =  -0.311250067766277     
   ------- Leaving GDM -- hopefully with a step in the right direction! --------
 
   13   -1731.8163015450      1.70E-01  Gap = 0.00 eV  Descent step
 
   ------------------- Entering Geometric Direct Minimization ------------------
   GDM::trust : actual energy change is       -0.513240322390857     
   GDM::trust : predicted energy change was   -0.160225740011363     
   GDM::trust : updated trust radius is        0.330000000000000     
   GDM:         diagonal hessian shift is      0.000000000000000E+000
   GDM::PreWSS: input subspace size is                 13
   GDM::PreWSS: working subspace size set to           13
   GDM::PrEWSS: # of linearly dependent vectors =            0
   GDM::PrEWSS: Max dev from orthonormality =   4.673188919168680E-012
   GDM::BFGS:   lowest Hinv e-value    0.305789692570806     
   GDM::BFGS:   highest Hinv e-value    3.24652509781555     
   GDM::      : max scaling in EWCs is          2.82842712474619     
   GDM::      : max rotation in step is        0.102492211819625     
   GDM::        grad.step =  -0.198970794270536     
   ------- Leaving GDM -- hopefully with a step in the right direction! --------
 
   14   -1732.3295418674      1.24E-01  Gap = 0.00 eV  Descent step
 
   ------------------- Entering Geometric Direct Minimization ------------------
   GDM::trust : actual energy change is       -0.290007478994767     
   GDM::trust : predicted energy change was   -0.159808209540469     
   GDM::trust : updated trust radius is        0.330000000000000     
   GDM:         diagonal hessian shift is      0.000000000000000E+000
   GDM::PreWSS: input subspace size is                 14
   GDM::PreWSS: working subspace size set to           14
   GDM::PrEWSS: # of linearly dependent vectors =            0
   GDM::PrEWSS: Max dev from orthonormality =   4.323845101406043E-012
   GDM::BFGS:   lowest Hinv e-value    0.304063675768205     
   GDM::BFGS:   highest Hinv e-value    3.27653475327497     
   GDM::trust : dogleg step length is          0.330000000000000     
   GDM::      : max scaling in EWCs is          2.82842712474619     
   GDM::      : max rotation in step is        0.124862978108194     
   GDM::        grad.step =  -9.213404833859792E-002
   ------- Leaving GDM -- hopefully with a step in the right direction! --------
 
   15   -1732.6195493464      5.73E-02  Gap = 0.00 eV  Dog-leg BFGS step
 
   ------------------- Entering Geometric Direct Minimization ------------------
   GDM::trust : actual energy change is       -5.664584377723259E-002
   GDM::trust : predicted energy change was   -0.136961067225711     
   GDM::trust : updated trust radius is        0.330000000000000     
   GDM:         diagonal hessian shift is      0.000000000000000E+000
   GDM::PreWSS: input subspace size is                 15
   GDM::PreWSS: working subspace size set to           15
   GDM::PrEWSS: # of linearly dependent vectors =            0
   GDM::PrEWSS: Max dev from orthonormality =   2.741916069193273E-012
   GDM::BFGS:   lowest Hinv e-value    0.301272352234771     
   GDM::BFGS:   highest Hinv e-value    3.27508994147888     
   GDM::      : max scaling in EWCs is          2.82842712474619     
   GDM::      : max rotation in step is        0.203573857040840     
   GDM::        grad.step =  -6.170838787935549E-002
   ------- Leaving GDM -- hopefully with a step in the right direction! --------
 
   16   -1732.6761951901      8.30E-02  Gap = 0.00 eV  Normal BFGS step
 
   ------------------- Entering Geometric Direct Minimization ------------------
   GDM::trust : actual energy change is        7.109702180173372E-002
   GDM::trust : predicted energy change was   -9.256258181903325E-002
   GDM::trust : updated trust radius is        0.108900000000000     
   GDM::search:  On step            1 .  The current bracket is:
       left   : x =  0.0000E+00, e =     -1732.6761951901, g = -0.1715E+00
       current: x =  0.3597E+00, e =     -1732.6050981683, g =  0.3755E+00
       right  : x =  0.1000E+04, e =      1000.0000000000, g =  0.1000E+04
       next   : x =  0.8357E-01
   GDM::      : max rotation in step is        4.729556786330743E-002
   ------- Leaving GDM -- hopefully with a step in the right direction! --------
 
   17   -1732.6050981683      3.29E-02  Gap = 0.00 eV  Line search: overstep
 
   ------------------- Entering Geometric Direct Minimization ------------------
   GDM::trust : actual energy change is       -1.858814685306243E-002
   GDM::trust : predicted energy change was   -9.256258181903325E-002
   GDM::trust : updated trust radius is        0.108900000000000     
   GDM:         diagonal hessian shift is      0.000000000000000E+000
   GDM::PreWSS: input subspace size is                 16
   GDM::PreWSS: working subspace size set to           16
   GDM::PrEWSS: # of linearly dependent vectors =            0
   GDM::PrEWSS: Max dev from orthonormality =   3.283165406209321E-012
   GDM::BFGS:   lowest Hinv e-value    0.188287251003160     
   GDM::BFGS:   highest Hinv e-value    3.27715735781727     
   GDM::      : max scaling in EWCs is          2.82842712474619     
   GDM::      : max rotation in step is       -3.198615611519703E-002
   GDM::        grad.step =  -8.898153682180164E-003
   ------- Leaving GDM -- hopefully with a step in the right direction! --------
 
   18   -1732.6947833370      3.71E-02  Gap = 0.00 eV  Normal BFGS step
 
   ------------------- Entering Geometric Direct Minimization ------------------
   GDM::trust : actual energy change is       -1.843804746840760E-003
   GDM::trust : predicted energy change was   -1.334723052327025E-002
   GDM::trust : updated trust radius is        0.330000000000000     
   GDM:         diagonal hessian shift is      0.000000000000000E+000
   GDM::PreWSS: input subspace size is                 17
   GDM::PreWSS: working subspace size set to           17
   GDM::PrEWSS: # of linearly dependent vectors =            0
   GDM::PrEWSS: Max dev from orthonormality =   1.915315128719897E-012
   GDM::BFGS:   lowest Hinv e-value    0.214021558594998     
   GDM::BFGS:   highest Hinv e-value    3.27055081761513     
   GDM::      : max scaling in EWCs is          2.82842712474619     
   GDM::      : max rotation in step is        4.242433069122283E-002
   GDM::        grad.step =  -9.281894649864134E-003
   ------- Leaving GDM -- hopefully with a step in the right direction! --------
 
   19   -1732.6966271417      4.90E-02  Gap = 0.00 eV  Normal BFGS step
 
   ------------------- Entering Geometric Direct Minimization ------------------
   GDM::trust : actual energy change is        3.742640639984529E-003
   GDM::trust : predicted energy change was   -1.392284197479620E-002
   GDM::trust : updated trust radius is        0.108900000000000     
   GDM::search:  On step            1 .  The current bracket is:
       left   : x =  0.0000E+00, e =     -1732.6966271417, g = -0.8226E-01
       current: x =  0.1128E+00, e =     -1732.6928845011, g =  0.1176E+00
       right  : x =  0.1000E+04, e =      1000.0000000000, g =  0.1000E+04
       next   : x =  0.4021E-01
   GDM::      : max rotation in step is        1.511678379703263E-002
   ------- Leaving GDM -- hopefully with a step in the right direction! --------
 
   20   -1732.6928845011      6.86E-03  Gap = 0.00 eV  Line search: overstep
 
   ------------------- Entering Geometric Direct Minimization ------------------
   GDM::trust : actual energy change is       -3.826891105745744E-003
   GDM::trust : predicted energy change was   -1.392284197479620E-002
   GDM::trust : updated trust radius is        0.108900000000000     
   GDM:         diagonal hessian shift is      0.000000000000000E+000
   GDM::PreWSS: input subspace size is                 18
   GDM::PreWSS: working subspace size set to           18
   GDM::PrEWSS: # of linearly dependent vectors =            0
   GDM::PrEWSS: Max dev from orthonormality =   1.067819097033684E-011
   GDM::BFGS:   lowest Hinv e-value    0.181056192547464     
   GDM::BFGS:   highest Hinv e-value    3.27940199928280     
   GDM::      : max scaling in EWCs is          2.82842712474619     
   GDM::      : max rotation in step is       -1.742279982296384E-002
   GDM::        grad.step =  -2.288146284351126E-003
   ------- Leaving GDM -- hopefully with a step in the right direction! --------
 
   21   -1732.7004540328      1.42E-02  Gap = 0.00 eV  Normal BFGS step
 
   ------------------- Entering Geometric Direct Minimization ------------------
   GDM::trust : actual energy change is       -6.325416422896524E-004
   GDM::trust : predicted energy change was   -3.432219426526688E-003
   GDM::trust : updated trust radius is        0.330000000000000     
   GDM:         diagonal hessian shift is      0.000000000000000E+000
   GDM::PreWSS: input subspace size is                 19
   GDM::PreWSS: working subspace size set to           18
   GDM::PrEWSS: # of linearly dependent vectors =            0
   GDM::PrEWSS: Max dev from orthonormality =   6.771500027369370E-012
   GDM::BFGS:   lowest Hinv e-value    0.185664684643090     
   GDM::BFGS:   highest Hinv e-value    3.23446946046186     
   GDM::      : max scaling in EWCs is          2.82842712474619     
   GDM::      : max rotation in step is       -6.028489073673213E-003
   GDM::        grad.step =  -1.119268181971031E-003
   ------- Leaving GDM -- hopefully with a step in the right direction! --------
 
   22   -1732.7010865745      7.17E-03  Gap = 0.00 eV  Normal BFGS step
 
   ------------------- Entering Geometric Direct Minimization ------------------
   GDM::trust : actual energy change is       -5.986000321627216E-004
   GDM::trust : predicted energy change was   -1.678902272956546E-003
   GDM::trust : updated trust radius is        0.330000000000000     
   GDM:         diagonal hessian shift is      0.000000000000000E+000
   GDM::PreWSS: input subspace size is                 19
   GDM::PreWSS: working subspace size set to           18
   GDM::PrEWSS: # of linearly dependent vectors =            0
   GDM::PrEWSS: Max dev from orthonormality =   4.945197029648796E-012
   GDM::BFGS:   lowest Hinv e-value    0.185604981003192     
   GDM::BFGS:   highest Hinv e-value    3.23451161992876     
   GDM::      : max scaling in EWCs is          2.82842712474619     
   GDM::      : max rotation in step is        5.976570966692807E-003
   GDM::        grad.step =  -4.040212909488751E-004
   ------- Leaving GDM -- hopefully with a step in the right direction! --------
 
   23   -1732.7016851745      8.97E-03  Gap = 0.00 eV  Normal BFGS step
 
   ------------------- Entering Geometric Direct Minimization ------------------
   GDM::trust : actual energy change is       -2.013688451825146E-004
   GDM::trust : predicted energy change was   -6.060319364233125E-004
   GDM::trust : updated trust radius is        0.330000000000000     
   GDM:         diagonal hessian shift is      0.000000000000000E+000
   GDM::PreWSS: input subspace size is                 19
   GDM::PreWSS: working subspace size set to           18
   GDM::PrEWSS: # of linearly dependent vectors =            0
   GDM::PrEWSS: Max dev from orthonormality =   1.282542128056008E-011
   GDM::BFGS:   lowest Hinv e-value    0.184550401663762     
   GDM::BFGS:   highest Hinv e-value    3.10305596707709     
   GDM::      : max scaling in EWCs is          2.82842712474619     
   GDM::      : max rotation in step is        2.007342834785486E-003
   GDM::        grad.step =  -1.241878048065278E-004
   ------- Leaving GDM -- hopefully with a step in the right direction! --------
 
   24   -1732.7018865434      3.21E-03  Gap = 0.00 eV  Normal BFGS step
 
   ------------------- Entering Geometric Direct Minimization ------------------
   GDM::trust : actual energy change is       -7.887588230914844E-005
   GDM::trust : predicted energy change was   -1.862817072097917E-004
   GDM::trust : updated trust radius is        0.330000000000000     
   GDM:         diagonal hessian shift is      0.000000000000000E+000
   GDM::PreWSS: input subspace size is                 19
   GDM::PreWSS: working subspace size set to           18
   GDM::PrEWSS: # of linearly dependent vectors =            0
   GDM::PrEWSS: Max dev from orthonormality =   1.366189626705872E-011
   GDM::BFGS:   lowest Hinv e-value    0.184701923719175     
   GDM::BFGS:   highest Hinv e-value    2.51977252570486     
   GDM::      : max scaling in EWCs is          2.82842712474619     
   GDM::      : max rotation in step is        2.445322562858736E-003
   GDM::        grad.step =  -4.031037067362196E-005
   ------- Leaving GDM -- hopefully with a step in the right direction! --------
 
   25   -1732.7019654192      1.62E-03  Gap = 0.00 eV  Normal BFGS step
 
   ------------------- Entering Geometric Direct Minimization ------------------
   GDM::trust : actual energy change is       -1.632017870178970E-005
   GDM::trust : predicted energy change was   -6.046555601043293E-005
   GDM::trust : updated trust radius is        0.330000000000000     
   GDM:         diagonal hessian shift is      0.000000000000000E+000
   GDM::PreWSS: input subspace size is                 19
   GDM::PreWSS: working subspace size set to           18
   GDM::PrEWSS: # of linearly dependent vectors =            0
   GDM::PrEWSS: Max dev from orthonormality =   6.479032588213585E-012
   GDM::BFGS:   lowest Hinv e-value    0.185181082368758     
   GDM::BFGS:   highest Hinv e-value    2.67858601396810     
   GDM::      : max scaling in EWCs is          2.82842712474619     
   GDM::      : max rotation in step is        2.673686145533362E-003
   GDM::        grad.step =  -1.826083051945833E-005
   ------- Leaving GDM -- hopefully with a step in the right direction! --------
 
   26   -1732.7019817394      1.43E-03  Gap = 0.00 eV  Normal BFGS step
 
   ------------------- Entering Geometric Direct Minimization ------------------
   GDM::trust : actual energy change is       -1.499353015788074E-005
   GDM::trust : predicted energy change was   -2.739124577918748E-005
   GDM::trust : updated trust radius is        0.330000000000000     
   GDM:         diagonal hessian shift is      0.000000000000000E+000
   GDM::PreWSS: input subspace size is                 19
   GDM::PreWSS: working subspace size set to           18
   GDM::PrEWSS: # of linearly dependent vectors =            0
   GDM::PrEWSS: Max dev from orthonormality =   7.654333764040011E-012
   GDM::BFGS:   lowest Hinv e-value    0.184910216686015     
   GDM::BFGS:   highest Hinv e-value    2.08812059100958     
   GDM::      : max scaling in EWCs is          2.82842712474619     
   GDM::      : max rotation in step is        3.769400586554650E-003
   GDM::        grad.step =  -6.104566805703207E-006
   ------- Leaving GDM -- hopefully with a step in the right direction! --------
 
   27   -1732.7019967329      1.30E-03  Gap = -81.83 eV  Normal BFGS step
 
   ------------------- Entering Geometric Direct Minimization ------------------
   GDM::trust : actual energy change is       -4.236129825585522E-006
   GDM::trust : predicted energy change was   -9.156850208554809E-006
   GDM::trust : updated trust radius is        0.330000000000000     
   GDM:         diagonal hessian shift is      0.000000000000000E+000
   GDM::PreWSS: input subspace size is                 19
   GDM::PreWSS: working subspace size set to           18
   GDM::PrEWSS: # of linearly dependent vectors =            0
   GDM::PrEWSS: Max dev from orthonormality =   4.857959347293050E-011
   GDM::BFGS:   lowest Hinv e-value    0.184531421376358     
   GDM::BFGS:   highest Hinv e-value    2.20086584004636     
   GDM::      : max scaling in EWCs is          2.82842712474619     
   GDM::      : max rotation in step is        5.602355871397523E-003
   GDM::        grad.step =  -5.062235202387539E-006
   ------- Leaving GDM -- hopefully with a step in the right direction! --------
 
   28   -1732.7020009691      1.16E-03  Gap = -81.83 eV  Normal BFGS step
 
   ------------------- Entering Geometric Direct Minimization ------------------
   GDM::trust : actual energy change is       -7.122016313587665E-006
   GDM::trust : predicted energy change was   -7.593352803581309E-006
   GDM::trust : updated trust radius is        0.330000000000000     
   GDM:         diagonal hessian shift is      0.000000000000000E+000
   GDM::PreWSS: input subspace size is                 19
   GDM::PreWSS: working subspace size set to           18
   GDM::PrEWSS: # of linearly dependent vectors =            0
   GDM::PrEWSS: Max dev from orthonormality =   2.981202090746038E-011
   GDM::BFGS:   lowest Hinv e-value    0.184807584043829     
   GDM::BFGS:   highest Hinv e-value    5.93872735407785     
   GDM::      : max scaling in EWCs is          2.82842712474619     
   GDM::      : max rotation in step is        1.776201924906591E-002
   GDM::        grad.step =  -8.793413988414215E-006
   ------- Leaving GDM -- hopefully with a step in the right direction! --------
 
   29   -1732.7020080911      1.23E-03  Gap = -81.83 eV  Normal BFGS step
 
   ------------------- Entering Geometric Direct Minimization ------------------
   GDM::trust : actual energy change is       -1.565519028190465E-005
   GDM::trust : predicted energy change was   -1.319012098262132E-005
   GDM::trust : updated trust radius is        0.330000000000000     
   GDM:         diagonal hessian shift is      0.000000000000000E+000
   GDM::PreWSS: input subspace size is                 19
   GDM::PreWSS: working subspace size set to           18
   GDM::PrEWSS: # of linearly dependent vectors =            0
   GDM::PrEWSS: Max dev from orthonormality =   1.216766964962090E-011
   GDM::BFGS:   lowest Hinv e-value    0.170956684108742     
   GDM::BFGS:   highest Hinv e-value    50.4377644090375     
   GDM::      : max scaling in EWCs is          2.82842712474619     
   GDM::      : max rotation in step is        0.155841627924842     
   GDM::        grad.step =  -6.927969322617854E-005
   ------- Leaving GDM -- hopefully with a step in the right direction! --------
 
   30   -1732.7020237463      1.35E-03  Gap = -81.83 eV  Normal BFGS step
 
   ------------------- Entering Geometric Direct Minimization ------------------
   GDM::trust : actual energy change is       -3.913016985279683E-005
   GDM::trust : predicted energy change was   -1.039195398392678E-004
   GDM::trust : updated trust radius is        0.330000000000000     
   GDM:         diagonal hessian shift is      0.000000000000000E+000
   GDM::PreWSS: input subspace size is                 19
   GDM::PreWSS: working subspace size set to           18
   GDM::PrEWSS: # of linearly dependent vectors =            0
   GDM::PrEWSS: Max dev from orthonormality =   3.774119211596982E-011
   GDM::BFGS:   lowest Hinv e-value    0.142781273177699     
   GDM::BFGS:   highest Hinv e-value    36.3982571238467     
   GDM::      : max scaling in EWCs is          2.82842712474619     
   GDM::      : max rotation in step is       -3.431433567127913E-002
   GDM::        grad.step =  -6.997409290919111E-005
   ------- Leaving GDM -- hopefully with a step in the right direction! --------
 
   31   -1732.7020628765      4.41E-03  Gap = -81.83 eV  Normal BFGS step
 
   ------------------- Entering Geometric Direct Minimization ------------------
   GDM::trust : actual energy change is       -6.569860556737694E-005
   GDM::trust : predicted energy change was   -1.049611393637867E-004
   GDM::trust : updated trust radius is        0.330000000000000     
   GDM:         diagonal hessian shift is      0.000000000000000E+000
   GDM::PreWSS: input subspace size is                 19
   GDM::PreWSS: working subspace size set to           18
   GDM::PrEWSS: # of linearly dependent vectors =            0
   GDM::PrEWSS: Max dev from orthonormality =   8.735352198530055E-011
   GDM::BFGS:   lowest Hinv e-value    0.170813959378958     
   GDM::BFGS:   highest Hinv e-value    27.5972190529577     
   GDM::      : max scaling in EWCs is          2.82842712474619     
   GDM::      : max rotation in step is        5.687288074514386E-002
   GDM::        grad.step =  -3.838006200819592E-005
   ------- Leaving GDM -- hopefully with a step in the right direction! --------
 
   32   -1732.7021285751      1.66E-03  Gap = -81.83 eV  Normal BFGS step
 
   ------------------- Entering Geometric Direct Minimization ------------------
   GDM::trust : actual energy change is       -6.624070397265314E-005
   GDM::trust : predicted energy change was   -5.757009301229388E-005
   GDM::trust : updated trust radius is        0.330000000000000     
   GDM:         diagonal hessian shift is      0.000000000000000E+000
   GDM::PreWSS: input subspace size is                 19
   GDM::PreWSS: working subspace size set to           18
   GDM::PrEWSS: # of linearly dependent vectors =            1
   GDM::PrEWSS: Max dev from orthonormality =   3.048569348351737E-010
   GDM::BFGS:   lowest Hinv e-value    0.173953778816520     
   GDM::BFGS:   highest Hinv e-value    93.4798853283603     
   GDM::      : max scaling in EWCs is          2.82842712474619     
   GDM::      : max rotation in step is        0.278617252778845     
   GDM::        grad.step =  -1.345618218700963E-004
   ------- Leaving GDM -- hopefully with a step in the right direction! --------
 
   33   -1732.7021948158      1.33E-03  Gap = -81.83 eV  Normal BFGS step
 
   ------------------- Entering Geometric Direct Minimization ------------------
   GDM::trust : actual energy change is        4.426500292993296E-004
   GDM::trust : predicted energy change was   -2.018427328051444E-004
   GDM::trust : updated trust radius is        0.108900000000000     
   GDM::search:  On step            1 .  The current bracket is:
       left   : x =  0.0000E+00, e =     -1732.7021948158, g = -0.4733E-03
       current: x =  0.2843E+00, e =     -1732.7017521657, g =  0.3089E-02
       right  : x =  0.1000E+04, e =      1000.0000000000, g =  0.1000E+04
       next   : x =  0.3314E-01
   GDM::      : max rotation in step is        3.247615677190759E-002
   ------- Leaving GDM -- hopefully with a step in the right direction! --------
 
   34   -1732.7017521657      1.54E-03  Gap = -81.83 eV  Line search: overstep
 
   ------------------- Entering Geometric Direct Minimization ------------------
   GDM::trust : actual energy change is       -2.744462335613207E-005
   GDM::trust : predicted energy change was   -2.018427328051444E-004
   GDM::trust : updated trust radius is        0.108900000000000     
   GDM:         diagonal hessian shift is      0.000000000000000E+000
   GDM::PreWSS: input subspace size is                 19
   GDM::PreWSS: working subspace size set to           18
   GDM::PrEWSS: # of linearly dependent vectors =            1
   GDM::PrEWSS: Max dev from orthonormality =   1.006228454725200E-009
   GDM::BFGS:   lowest Hinv e-value    0.154665302982189     
   GDM::BFGS:   highest Hinv e-value    48.3575049993168     
   GDM::      : max scaling in EWCs is          2.82842712474619     
   GDM::      : max rotation in step is        0.120037780354615     
   GDM::        grad.step =  -6.013155663309866E-005
   ------- Leaving GDM -- hopefully with a step in the right direction! --------
 
   35   -1732.7022222604      1.18E-03  Gap = -81.83 eV  Normal BFGS step
 
   ------------------- Entering Geometric Direct Minimization ------------------
   GDM::trust : actual energy change is       -3.225707359888474E-005
   GDM::trust : predicted energy change was   -9.019733494964799E-005
   GDM::trust : updated trust radius is        0.330000000000000     
   GDM:         diagonal hessian shift is      0.000000000000000E+000
   GDM::PreWSS: input subspace size is                 19
   GDM::PreWSS: working subspace size set to           18
   GDM::PrEWSS: # of linearly dependent vectors =            1
   GDM::PrEWSS: Max dev from orthonormality =   2.279561775453409E-009
   GDM::BFGS:   lowest Hinv e-value    0.143516433851953     
   GDM::BFGS:   highest Hinv e-value    32.2955282151596     
   GDM::      : max scaling in EWCs is          2.82842712474619     
   GDM::      : max rotation in step is       -4.086103245325730E-002
   GDM::        grad.step =  -2.475465468109093E-005
   ------- Leaving GDM -- hopefully with a step in the right direction! --------
 
   36   -1732.7022545175      3.09E-03  Gap = -81.83 eV  Normal BFGS step
 
   ------------------- Entering Geometric Direct Minimization ------------------
   GDM::trust : actual energy change is       -1.667092055868125E-005
   GDM::trust : predicted energy change was   -3.713198202163641E-005
   GDM::trust : updated trust radius is        0.330000000000000     
   GDM:         diagonal hessian shift is      0.000000000000000E+000
   GDM::PreWSS: input subspace size is                 19
   GDM::PreWSS: working subspace size set to           18
   GDM::PrEWSS: # of linearly dependent vectors =            1
   GDM::PrEWSS: Max dev from orthonormality =   1.167597431933620E-009
   GDM::BFGS:   lowest Hinv e-value    0.171709615482198     
   GDM::BFGS:   highest Hinv e-value    27.1142709349205     
   GDM::      : max scaling in EWCs is          2.82842712474619     
   GDM::      : max rotation in step is        1.817305755068560E-002
   GDM::        grad.step =  -5.475331922374997E-006
   ------- Leaving GDM -- hopefully with a step in the right direction! --------
 
   37   -1732.7022711884      4.48E-04  Gap = -81.83 eV  Normal BFGS step
 
   ------------------- Entering Geometric Direct Minimization ------------------
   GDM::trust : actual energy change is       -3.096378350164741E-006
   GDM::trust : predicted energy change was   -8.212997883562498E-006
   GDM::trust : updated trust radius is        0.330000000000000     
   GDM:         diagonal hessian shift is      0.000000000000000E+000
   GDM::PreWSS: input subspace size is                 19
   GDM::PreWSS: working subspace size set to           18
   GDM::PrEWSS: # of linearly dependent vectors =            2
   GDM::PrEWSS: Max dev from orthonormality =   5.439124784248350E-010
   GDM::BFGS:   lowest Hinv e-value    0.166928204739153     
   GDM::BFGS:   highest Hinv e-value    35.8290550820999     
   GDM::      : max scaling in EWCs is          2.82842712474619     
   GDM::      : max rotation in step is        1.000728316332264E-002
   GDM::        grad.step =  -2.785751742293634E-006
   ------- Leaving GDM -- hopefully with a step in the right direction! --------
 
   38   -1732.7022742848      5.26E-04  Gap = -81.83 eV  Normal BFGS step
 
   ------------------- Entering Geometric Direct Minimization ------------------
   GDM::trust : actual energy change is       -2.552737669248017E-006
   GDM::trust : predicted energy change was   -4.178627613440451E-006
   GDM::trust : updated trust radius is        0.330000000000000     
   GDM:         diagonal hessian shift is      0.000000000000000E+000
   GDM::PreWSS: input subspace size is                 19
   GDM::PreWSS: working subspace size set to           18
   GDM::PrEWSS: # of linearly dependent vectors =            1
   GDM::PrEWSS: Max dev from orthonormality =   2.220989068005275E-009
   GDM::BFGS:   lowest Hinv e-value    0.179159601476387     
   GDM::BFGS:   highest Hinv e-value    38.9850052866710     
   GDM::      : max scaling in EWCs is          2.82842712474619     
   GDM::      : max rotation in step is        3.600684744175931E-003
   GDM::        grad.step =  -1.009849393251107E-006
   ------- Leaving GDM -- hopefully with a step in the right direction! --------
 
   39   -1732.7022768375      5.57E-04  Gap = -81.83 eV  Normal BFGS step
 
   ------------------- Entering Geometric Direct Minimization ------------------
   GDM::trust : actual energy change is        8.644929039292037E-008
   GDM::trust : predicted energy change was   -1.514774089876661E-006
   GDM::trust : updated trust radius is        0.108900000000000     
   GDM::search:  On step            1 .  The current bracket is:
       left   : x =  0.0000E+00, e =     -1732.7022768375, g = -0.2538E-03
       current: x =  0.3980E-02, e =     -1732.7022767510, g =  0.2749E-03
       right  : x =  0.1000E+04, e =      1000.0000000000, g =  0.1000E+04
       next   : x =  0.1833E-02
   GDM::      : max rotation in step is        1.658375294271198E-003
   ------- Leaving GDM -- hopefully with a step in the right direction! --------
 
   40   -1732.7022767510      9.83E-05  Gap = -81.83 eV  Line search: overstep
 
   ------------------- Entering Geometric Direct Minimization ------------------
   GDM::trust : actual energy change is       -4.829209956369596E-007
   GDM::trust : predicted energy change was   -1.514774089876661E-006
   GDM::trust : updated trust radius is        0.108900000000000     
   GDM:         diagonal hessian shift is      0.000000000000000E+000
   GDM::PreWSS: input subspace size is                 19
   GDM::PreWSS: working subspace size set to           18
   GDM::PrEWSS: # of linearly dependent vectors =            1
   GDM::PrEWSS: Max dev from orthonormality =   6.239484519332539E-010
   GDM::BFGS:   lowest Hinv e-value    0.192280036577105     
   GDM::BFGS:   highest Hinv e-value    38.4226360652957     
   GDM::      : max scaling in EWCs is          2.82842712474619     
   GDM::      : max rotation in step is        1.198246810436818E-003
   GDM::        grad.step =  -4.186502310229310E-007
   ------- Leaving GDM -- hopefully with a step in the right direction! --------
 
   41   -1732.7022773204      2.61E-04  Gap = 0.00 eV  Normal BFGS step
 
   ------------------- Entering Geometric Direct Minimization ------------------
   GDM::trust : actual energy change is        3.043896867893636E-008
   GDM::trust : predicted energy change was   -6.279753465343965E-007
   GDM::trust : updated trust radius is        0.108900000000000     
   GDM::search:  On step            1 .  The current bracket is:
       left   : x =  0.0000E+00, e =     -1732.7022773204, g = -0.2133E-03
       current: x =  0.1963E-02, e =     -1732.7022772900, g =  0.2289E-03
       right  : x =  0.1000E+04, e =      1000.0000000000, g =  0.1000E+04
       next   : x =  0.9149E-03
   GDM::      : max rotation in step is        5.585152174054589E-004
   ------- Leaving GDM -- hopefully with a step in the right direction! --------
 
   42   -1732.7022772900      4.86E-05  Gap = 0.00 eV  Line search: overstep
 
   ------------------- Entering Geometric Direct Minimization ------------------
   GDM::trust : actual energy change is       -2.018023224081844E-007
   GDM::trust : predicted energy change was   -6.279753465343965E-007
   GDM::trust : updated trust radius is        0.108900000000000     
   GDM:         diagonal hessian shift is      0.000000000000000E+000
   GDM::PreWSS: input subspace size is                 19
   GDM::PreWSS: working subspace size set to           18
   GDM::PrEWSS: # of linearly dependent vectors =            1
   GDM::PrEWSS: Max dev from orthonormality =   6.890264608871988E-010
   GDM::BFGS:   lowest Hinv e-value    0.201296344649884     
   GDM::BFGS:   highest Hinv e-value    40.7623912001170     
   GDM::      : max scaling in EWCs is          2.82842712474619     
   GDM::      : max rotation in step is        3.445134791277488E-003
   GDM::        grad.step =  -2.056901444035793E-007
   ------- Leaving GDM -- hopefully with a step in the right direction! --------
 
   43   -1732.7022775222      2.20E-04  Gap = 0.00 eV  Normal BFGS step
 
   ------------------- Entering Geometric Direct Minimization ------------------
   GDM::trust : actual energy change is       -7.976200322445948E-008
   GDM::trust : predicted energy change was   -3.085352166053691E-007
   GDM::trust : updated trust radius is        0.330000000000000     
   GDM:         diagonal hessian shift is      0.000000000000000E+000
   GDM::PreWSS: input subspace size is                 19
   GDM::PreWSS: working subspace size set to           18
   GDM::PrEWSS: # of linearly dependent vectors =            0
   GDM::PrEWSS: Max dev from orthonormality =   1.736403042185142E-009
   GDM::BFGS:   lowest Hinv e-value    0.186026976147925     
   GDM::BFGS:   highest Hinv e-value    43.1218663128117     
   GDM::      : max scaling in EWCs is          2.82842712474619     
   GDM::      : max rotation in step is        1.144443256333565E-004
   GDM::        grad.step =  -8.304539339685472E-008
   ------- Leaving GDM -- hopefully with a step in the right direction! --------
 
   44   -1732.7022776020      8.84E-05  Gap = 0.00 eV  Normal BFGS step
 
   ------------------- Entering Geometric Direct Minimization ------------------
   GDM::trust : actual energy change is       -6.340292202366982E-008
   GDM::trust : predicted energy change was   -1.245680900952821E-007
   GDM::trust : updated trust radius is        0.330000000000000     
   GDM:         diagonal hessian shift is      0.000000000000000E+000
   GDM::PreWSS: input subspace size is                 19
   GDM::PreWSS: working subspace size set to           18
   GDM::PrEWSS: # of linearly dependent vectors =            0
   GDM::PrEWSS: Max dev from orthonormality =   7.486279651747196E-010
   GDM::BFGS:   lowest Hinv e-value    0.193521884731392     
   GDM::BFGS:   highest Hinv e-value    42.8450472080237     
   GDM::      : max scaling in EWCs is          2.82842712474619     
   GDM::      : max rotation in step is       -4.153275347670310E-004
   GDM::        grad.step =  -1.678978481460946E-008
   ------- Leaving GDM -- hopefully with a step in the right direction! --------
 
   45   -1732.7022776654      3.65E-05  Gap = 0.00 eV  Normal BFGS step
 
   ------------------- Entering Geometric Direct Minimization ------------------
   GDM::trust : actual energy change is       -3.427430783631280E-009
   GDM::trust : predicted energy change was   -2.518467722191420E-008
   GDM::trust : updated trust radius is        0.330000000000000     
   GDM:         diagonal hessian shift is      0.000000000000000E+000
   GDM::PreWSS: input subspace size is                 19
   GDM::PreWSS: working subspace size set to           18
   GDM::PrEWSS: # of linearly dependent vectors =            0
   GDM::PrEWSS: Max dev from orthonormality =   1.135860329404270E-009
   GDM::BFGS:   lowest Hinv e-value    0.191876416490614     
   GDM::BFGS:   highest Hinv e-value    42.8101314591457     
   GDM::      : max scaling in EWCs is          2.82842712474619     
   GDM::      : max rotation in step is        4.741420473094904E-005
   GDM::        grad.step =  -8.323040553624745E-009
   ------- Leaving GDM -- hopefully with a step in the right direction! --------
 
   46   -1732.7022776688      3.24E-05  Gap = 0.00 eV  Normal BFGS step
 
   ------------------- Entering Geometric Direct Minimization ------------------
   GDM::trust : actual energy change is       -7.282324077095836E-009
   GDM::trust : predicted energy change was   -1.248456083043712E-008
   GDM::trust : updated trust radius is        0.330000000000000     
   GDM:         diagonal hessian shift is      0.000000000000000E+000
   GDM::PreWSS: input subspace size is                 19
   GDM::PreWSS: working subspace size set to           18
   GDM::PrEWSS: # of linearly dependent vectors =            0
   GDM::PrEWSS: Max dev from orthonormality =   9.458346918178595E-010
   GDM::BFGS:   lowest Hinv e-value    0.194462466712440     
   GDM::BFGS:   highest Hinv e-value    42.7213291616867     
   GDM::      : max scaling in EWCs is          2.82842712474619     
   GDM::      : max rotation in step is       -2.792238178578462E-005
   GDM::        grad.step =  -9.141114654914981E-010
   ------- Leaving GDM -- hopefully with a step in the right direction! --------
 
   47   -1732.7022776761      5.88E-06  Gap = 0.00 eV  Normal BFGS step
 
   ------------------- Entering Geometric Direct Minimization ------------------
   GDM::trust : actual energy change is       -1.737134880386293E-010
   GDM::trust : predicted energy change was   -1.371167198237247E-009
   GDM::trust : updated trust radius is        0.330000000000000     
   GDM:         diagonal hessian shift is      0.000000000000000E+000
   GDM::PreWSS: input subspace size is                 19
   GDM::PreWSS: working subspace size set to           18
   GDM::PrEWSS: # of linearly dependent vectors =            1
   GDM::PrEWSS: Max dev from orthonormality =   3.516847785212107E-010
   GDM::BFGS:   lowest Hinv e-value    0.192491918829652     
   GDM::BFGS:   highest Hinv e-value    42.6984914345020     
   GDM::      : max scaling in EWCs is          2.82842712474619     
   GDM::      : max rotation in step is        2.957703298762701E-006
   GDM::        grad.step =  -4.311721327351121E-010
   ------- Leaving GDM -- hopefully with a step in the right direction! --------
 
   48   -1732.7022776763      4.85E-06  Gap = 0.00 eV  Normal BFGS step
 
   ------------------- Entering Geometric Direct Minimization ------------------
   GDM::trust : actual energy change is       -3.733475750777870E-010
   GDM::trust : predicted energy change was   -6.467581991026682E-010
   GDM::trust : updated trust radius is        0.330000000000000     
   GDM:         diagonal hessian shift is      0.000000000000000E+000
   GDM::PreWSS: input subspace size is                 19
   GDM::PreWSS: working subspace size set to           18
   GDM::PrEWSS: # of linearly dependent vectors =            1
   GDM::PrEWSS: Max dev from orthonormality =   4.720677945768692E-010
   GDM::BFGS:   lowest Hinv e-value    0.194196028278999     
   GDM::BFGS:   highest Hinv e-value    42.6934365430465     
   GDM::      : max scaling in EWCs is          2.82842712474619     
   GDM::      : max rotation in step is       -1.682394181100181E-005
   GDM::        grad.step =  -6.185840361099181E-011
   ------- Leaving GDM -- hopefully with a step in the right direction! --------
 
   49   -1732.7022776766      1.37E-06  Gap = 0.00 eV  Normal BFGS step
 
   ------------------- Entering Geometric Direct Minimization ------------------
   GDM::trust : actual energy change is        2.273736754432321E-012
   GDM::trust : predicted energy change was   -9.278760541648773E-011
   GDM::trust : updated trust radius is        0.108900000000000     
   GDM::WARNING energy changes are now smaller than effective accuracy.
   GDM::        calculation will continue, but THRESH should be increased
   GDM::        or SCF_CONVERGENCE decreased.
   GDM::        effective_thresh =   2.279561775453409E-009
   GDM:         diagonal hessian shift is      0.000000000000000E+000
   GDM::PreWSS: input subspace size is                 19
   GDM::PreWSS: working subspace size set to           18
   GDM::PrEWSS: # of linearly dependent vectors =            0
   GDM::PrEWSS: Max dev from orthonormality =   6.854544883083680E-010
   GDM::BFGS:   lowest Hinv e-value    0.193951032757493     
   GDM::BFGS:   highest Hinv e-value    42.6057392861218     
   GDM::      : max scaling in EWCs is          2.82842712474619     
   GDM::      : max rotation in step is        5.713427160798016E-006
   GDM::        grad.step =  -3.404589002079645E-011
   ------- Leaving GDM -- hopefully with a step in the right direction! --------
 
   50   -1732.7022776766      1.17E-06  Gap = 0.00 eV  Normal BFGS step
 
   ------------------- Entering Geometric Direct Minimization ------------------
   GDM::trust : actual energy change is       -3.751665644813329E-011
   GDM::trust : predicted energy change was   -5.106883503119467E-011
   GDM::trust : updated trust radius is        0.330000000000000     
   GDM:         diagonal hessian shift is      0.000000000000000E+000
   GDM::PreWSS: input subspace size is                 19
   GDM::PreWSS: working subspace size set to           18
   GDM::PrEWSS: # of linearly dependent vectors =            1
   GDM::PrEWSS: Max dev from orthonormality =   2.356087130950257E-010
   GDM::BFGS:   lowest Hinv e-value    0.193086384848003     
   GDM::BFGS:   highest Hinv e-value    42.5347254481816     
   GDM::      : max scaling in EWCs is          2.82842712474619     
   GDM::      : max rotation in step is       -1.420532670965143E-006
   GDM::        grad.step =  -1.304492760663946E-012
   ------- Leaving GDM -- hopefully with a step in the right direction! --------
 
   51   -1732.7022776767      2.49E-07  Gap = 0.00 eV  Normal BFGS step
 
   ------------------- Entering Geometric Direct Minimization ------------------
   GDM::trust : actual energy change is        2.273736754432321E-013
   GDM::trust : predicted energy change was   -1.956739140995919E-012
   GDM::trust : updated trust radius is        0.108900000000000     
   GDM::WARNING energy changes are now smaller than effective accuracy.
   GDM::        calculation will continue, but THRESH should be increased
   GDM::        or SCF_CONVERGENCE decreased.
   GDM::        effective_thresh =   2.279561775453409E-009
   GDM:         diagonal hessian shift is      0.000000000000000E+000
   GDM::PreWSS: input subspace size is                 19
   GDM::PreWSS: working subspace size set to           18
   GDM::PrEWSS: # of linearly dependent vectors =            1
   GDM::PrEWSS: Max dev from orthonormality =   8.544039434288386E-011
   GDM::BFGS:   lowest Hinv e-value    0.193605617041493     
   GDM::BFGS:   highest Hinv e-value    52.2918912964854     
   GDM::      : max scaling in EWCs is          2.82842712474619     
   GDM::      : max rotation in step is       -7.689411907286486E-007
   GDM::        grad.step =  -7.787452394908713E-013
   ------- Leaving GDM -- hopefully with a step in the right direction! --------
 
   52   -1732.7022776767      2.18E-07  Gap = 0.00 eV  Normal BFGS step
 
   ------------------- Entering Geometric Direct Minimization ------------------
   GDM::trust : actual energy change is       -4.547473508864641E-012
   GDM::trust : predicted energy change was   -1.168117859236306E-012
   GDM::trust : updated trust radius is        0.330000000000000     
   GDM:         diagonal hessian shift is      0.000000000000000E+000
   GDM::PreWSS: input subspace size is                 19
   GDM::PreWSS: working subspace size set to           18
   GDM::PrEWSS: # of linearly dependent vectors =            0
   GDM::PrEWSS: Max dev from orthonormality =   3.661560221690507E-010
   GDM::BFGS:   lowest Hinv e-value    0.193690733072315     
   GDM::BFGS:   highest Hinv e-value    51.6070429921485     
   GDM::      : max scaling in EWCs is          2.82842712474619     
   GDM::      : max rotation in step is        1.235017031668402E-006
   GDM::        grad.step =  -3.535599714518028E-014
   ------- Leaving GDM -- hopefully with a step in the right direction! --------
 
   53   -1732.7022776767      3.11E-08  Gap = 0.00 eV  Normal BFGS step
 
   ------------------- Entering Geometric Direct Minimization ------------------
   GDM::trust : actual energy change is        7.958078640513122E-012
   GDM::trust : predicted energy change was   -5.303399571777042E-014
   GDM::trust : updated trust radius is        0.108900000000000     
   GDM::WARNING energy changes are now smaller than effective accuracy.
   GDM::        calculation will continue, but THRESH should be increased
   GDM::        or SCF_CONVERGENCE decreased.
   GDM::        effective_thresh =   2.279561775453409E-009
   GDM:         diagonal hessian shift is      0.000000000000000E+000
   GDM::PreWSS: input subspace size is                 19
   GDM::PreWSS: working subspace size set to           18
   GDM::PrEWSS: # of linearly dependent vectors =            0
   GDM::PrEWSS: Max dev from orthonormality =   1.780871144996254E-010
   GDM::BFGS:   lowest Hinv e-value    0.193438596995502     
   GDM::BFGS:   highest Hinv e-value    52.4258925008285     
   GDM::      : max scaling in EWCs is          2.82842712474619     
   GDM::      : max rotation in step is       -4.407369038406402E-007
   GDM::        grad.step =  -1.242253907118600E-014
   ------- Leaving GDM -- hopefully with a step in the right direction! --------
 
   54   -1732.7022776767      3.02E-08  Gap = 0.00 eV  Normal BFGS step
 
   ------------------- Entering Geometric Direct Minimization ------------------
   GDM::trust : actual energy change is       -8.185452315956354E-012
   GDM::trust : predicted energy change was   -1.863380860677900E-014
   GDM::trust : updated trust radius is        0.330000000000000     
   GDM:         diagonal hessian shift is      0.000000000000000E+000
   GDM::PreWSS: input subspace size is                 19
   GDM::PreWSS: working subspace size set to           17
   GDM::PrEWSS: # of linearly dependent vectors =            0
   GDM::PrEWSS: Max dev from orthonormality =   1.391733898264969E-010
   GDM::BFGS:   lowest Hinv e-value    0.194041947354723     
   GDM::BFGS:   highest Hinv e-value    47.4448759479484     
   GDM::      : max scaling in EWCs is          2.82842712474619     
   GDM::      : max rotation in step is       -2.902182790086197E-007
   GDM::        grad.step =  -3.222136486344552E-015
   ------- Leaving GDM -- hopefully with a step in the right direction! --------
 
   55   -1732.7022776767      9.14E-09 Convergence criterion met
 ---------------------------------------
 One-Electron    Energy = -3998.9772194307
 Total Coulomb   Energy =  1605.3015602109
 Alpha Exchange  Energy =   -11.6691206934
 Beta  Exchange  Energy =   -11.6691206934
 DFT   Exchange  Energy =   -92.9302989991
 DFT Correlation Energy =    -4.8363769719
 Nuclear Repu.   Energy =   782.0782989008
 Nuclear Attr.   Energy = -5662.2994848068
 Kinetic         Energy =  1663.3222653761
 SCF time:  CPU 507.05 s  wall 55.61 s
 SCF   energy in the final basis set = -1732.7022776767
 Total energy in the final basis set = -1732.7022776767
 
 --------------------------------------------------------------
 
                    Orbital Energies (a.u.)
 --------------------------------------------------------------
 
 Alpha MOs
 -- Occupied --
-88.826 -88.819 -88.804 -88.803  -7.914  -7.904  -7.887  -7.887
 -5.874  -5.873  -5.873  -5.864  -5.863  -5.862  -5.847  -5.847
 -5.846  -5.846  -5.846  -5.846  -2.009  -2.001  -1.987  -1.245
 -1.229  -1.218  -1.216  -1.204  -1.199  -1.197  -1.179  -1.176
 -0.691  -0.665  -0.647  -0.642  -0.346  -0.344  -0.335  -0.322
 -0.308  -0.291  -0.291  -0.290  -0.277  -0.272  -0.258  -0.251
 -0.196  -0.156
 -- Virtual --
 -0.122  -0.072  -0.070  -0.067  -0.063  -0.058  -0.036  -0.036
 -0.022  -0.020   0.000   0.001   0.007   0.021   0.027   0.027
  0.037   0.037   0.037   0.045   0.047   0.061   0.063   0.064
  0.068   0.071   0.090   0.097   0.097   0.108   0.109   0.117
  0.131   0.131   0.142   0.142   0.147   0.152   0.153   0.162
  0.166   0.212   0.219   0.224   0.233   0.234   0.234   0.238
  0.256   0.257   0.303   0.304   0.310   0.313   0.318   0.321
  0.328   0.330   0.331   0.348   0.370   0.371   0.410   0.410
  0.487   0.539   0.582   0.585   0.595   0.599   0.603   0.611
  0.624   0.624   0.660   0.663   0.715   0.738   0.746   0.786
  0.791   0.794   0.801   0.820   0.823   0.849   0.871   0.872
  0.889   0.891   0.900   0.906   0.922   0.923   0.999   1.000
  1.061   1.070   1.073   1.096   1.126   8.243   8.247  11.320
 --------------------------------------------------------------
 
          Ground-State Mulliken Net Atomic Charges

     Atom                 Charge (a.u.)
  ----------------------------------------
      1 Zr                    0.390420
      2 Zr                    0.387802
      3 Zr                    0.390220
      4 S                    -0.335640
      5 S                    -0.336056
      6 S                    -0.315602
      7 S                    -0.181144
  ----------------------------------------
  Sum of atomic charges =     0.000000

 -----------------------------------------------------------------
                    Cartesian Multipole Moments
 -----------------------------------------------------------------
    Charge (ESU x 10^10)
                 0.0000
    Dipole Moment (Debye)
         X       0.1699      Y      -0.4647      Z       5.3201
       Tot       5.3431
    Quadrupole Moments (Debye-Ang)
        XX    -112.3087     XY      -0.5716     YY    -110.8231
        XZ      -0.7356     YZ       2.0471     ZZ    -130.2318
    Octopole Moments (Debye-Ang^2)
       XXX      35.2049    XXY     -22.6127    XYY     -34.4129
       YYY      20.4416    XXZ      34.2823    XYZ       0.5497
       YYZ      32.8142    XZZ       0.2490    YZZ      -0.7114
       ZZZ      14.8536
    Hexadecapole Moments (Debye-Ang^3)
      XXXX   -1156.2916   XXXY       3.6784   XXYY    -385.0488
      XYYY      -8.2993   YYYY   -1143.3975   XXXZ     -12.8014
      XXYZ       9.2328   XYYZ       7.7598   YYYZ       4.6775
      XXZZ    -343.1874   XYZZ      -4.2682   YYZZ    -331.9286
      XZZZ      -4.3063   YZZZ      11.9404   ZZZZ    -883.9725
 -----------------------------------------------------------------
Archival summary:
1\1\hpc3463\SP\ProcedureUnspecified\BasisUnspecified\r34(+,1)\liqiuy\FriJan1718:58:092020FriJan1718:58:092020\0\\#,ProcedureUnspecified,BasisUnspecified,\\84,1\Zr\S,1,2.2963\Zr,2,2.29634,1,73.0648\S,3,2.29616,2,103.009,1,-93.8773,0\S,1,2.29635,2,103.134,3,93.8971,0\Zr,5,2.29611,1,73.0626,2,-93.8541,0\S,3,2.32717,2,105.293,1,16.2289,0\\\@

 Total job time:  57.68s(wall), 515.15s(cpu) 
 Fri Jan 17 18:58:09 2020

        *************************************************************
        *                                                           *
        *  Thank you very much for using Q-Chem.  Have a nice day.  *
        *                                                           *
        *************************************************************


0 sent ACK to 0 
now end server 0 ... 
cleanup process ... done

Running Job 2 of 2 ZrOx.in
qchem ZrOx.in_18414.1 /tmp/5732512.priya/ZrOx.save/ 1
/usr/usc/qchem/4.4/bin/mpi/mpirun_qchem -machinefile /usr/usc/qchem/4.4/bin/mpi/machines -np 1 /usr/usc/qchem/4.4/exe/qcprog.exe ZrOx.in_18414.1 /tmp/5732512.priya/ZrOx.save/

Process 0 of 1 is on hpc3463.hpcc.usc.edu - thread support 0
initial socket setup ...start
initial socket setup ...done 
now start server 0 ... 
Check license passed

                  Welcome to Q-Chem
     A Quantum Leap Into The Future Of Chemistry


 Q-Chem 4.4, Q-Chem, Inc., Pleasanton, CA (2016)

 Y. Shao,  Z. Gan,  E. Epifanovsky,  A. T. B. Gilbert,  M. Wormit,  
 J. Kussmann,  A. W. Lange,  A. Behn,  J. Deng,  X. Feng,  D. Ghosh,  
 M. Goldey,  P. R. Horn,  L. D. Jacobson,  I. Kaliman,  F.Rob,  
 R. Z. Khaliullin,  T. Kus,  A. Landau,  J. Liu,  E. I. Proynov,  Y. M. Rhee,  
 R. M. Richard,  M. A. Rohrdanz,  R. P. Steele,  E. J. Sundstrom,  
 H. L. Woodcock III,  P. M. Zimmerman,  D. Zuev,  B. Albrecht,  E. Alguire,  
 B. Austin,  S. A. Baeppler,  G. J. O. Beran,  Y. A. Bernard,  E. Berquist,  
 K. Brandhorst,  K. B. Bravaya,  S. T. Brown,  D. Casanova,  C.-M. Chang,  
 Y. Chen,  S. H. Chien,  K. D. Closser,  M. P. Coons,  D. L. Crittenden,  
 S. Dasgupta,  M. Diedenhofen,  R. A. DiStasio Jr.,  H. Do,  A. D. Dutoi,  
 R. G. Edgar,  P.-T. Fang,  S. Fatehi,  Q. Feng,  L. Fusti-Molnar,  
 A. Ghysels,  A. Golubeva-Zadorozhnaya,  J. Gomes,  A. Gunina,  
 M. W. D. Hanson-Heine,  P. H. P. Harbach,  A. W. Hauser,  E. G. Hohenstein,  
 Z. C. Holden,  K. Hui,  T.-C. Jagau,  H. Ji,  B. Kaduk,  K. Khistyaev,  
 Jaehoon Kim,  Jihan Kim,  R. A. King,  P. Klunzinger,  D. Kosenkov,  
 T. Kowalczyk,  C. M. Krauter,  A. Kunitsa,  K. U. Lao,  A. Laurent,  
 K. V. Lawler,  D. Lefrancois,  S. Lehtola,  S. V. Levchenko,  C. Y. Lin,  
 Y.-S. Lin,  F. Liu,  E. Livshits,  R. C. Lochan,  A. Luenser,  P. Manohar,  
 S. F. Manzer,  S.-P. Mao,  Y. Mao,  N. Mardirossian,  A. V. Marenich,  
 L. A. Martinez-Martinez,  S. A. Maurer,  N. J. Mayhall,  J.-M. Mewes,  
 A. F. Morrison,  K. Nanda,  C. M. Oana,  R. Olivares-Amaya,  D. P. O'Neill,  
 J. A. Parkhill,  T. M. Perrine,  R. Peverati,  P. A. Pieniazek,  F. Plasser,  
 A. Prociuk,  D. R. Rehn,  E. Rosta,  N. J. Russ,  N. Sergueev,  
 S. M. Sharada,  S. Sharma,  D. W. Small,  A. Sodt,  T. Stauch,  T. Stein,  
 D. Stuck,  Y.-C. Su,  A. J. W. Thom,  T. Tsuchimochi,  L. Vogt,  O. Vydrov,  
 T. Wang,  M. A. Watson,  J. Wenzel,  A. White,  C. F. Williams,  
 V. Vanovschi,  S. Yeganeh,  S. R. Yost,  Z.-Q. You,  I. Y. Zhang,  X. Zhang,  
 Y. Zhao,  B. R. Brooks,  G. K. L. Chan,  D. M. Chipman,  C. J. Cramer,  
 W. A. Goddard III,  M. S. Gordon,  W. J. Hehre,  A. Klamt,  
 H. F. Schaefer III,  M. W. Schmidt,  C. D. Sherrill,  D. G. Truhlar,  
 A. Warshel,  X. Xu,  A. Aspuru-Guzik,  R. Baer,  A. T. Bell,  N. A. Besley,  
 J.-D. Chai,  A. Dreuw,  B. D. Dunietz,  T. R. Furlani,  S. R. Gwaltney,  
 C.-P. Hsu,  Y. Jung,  J. Kong,  D. S. Lambrecht,  W. Liang,  C. Ochsenfeld,  
 V. A. Rassolov,  L. V. Slipchenko,  J. E. Subotnik,  T. Van Voorhis,  
 J. M. Herbert,  A. I. Krylov,  P. M. W. Gill,  M. Head-Gordon

 Contributors to earlier versions of Q-Chem not listed above: 
 R. D. Adamson,  J. Baker,  E. F. C. Byrd,  A. K. Chakraborty,  C.-L. Cheng,  
 H. Dachsel,  R. J. Doerksen,  G. Hawkins,  A. Heyden,  S. Hirata,  
 G. Kedziora,  F. J. Keil,  C. Kelley,  P. P. Korambath,  W. Kurlancheek,  
 A. M. Lee,  M. S. Lee,  D. Liotard,  I. Lotan,  P. E. Maslen,  N. Nair,  
 D. Neuhauser,  R. Olson,  B. Peters,  J. Ritchie,  N. E. Schultz,  
 N. Shenvi,  A. C. Simmonett,  K. S. Thanthiriwatte,  Q. Wu,  W. Zhang

 Please cite Q-Chem as follows:
 Y. Shao et al., Mol. Phys. 113, 184-215 (2015)
 DOI: 10.1080/00268976.2014.952696

 Q-Chem 4.4.1 for Intel X86 Linux

 Parts of Q-Chem use Armadillo 5.200.1 (Boston Tea Smuggler).
 http://arma.sourceforge.net/

 Q-Chem begins on Fri Jan 17 18:58:12 2020  

Host: 
0

     Scratch files written to /tmp/5732512.priya/ZrOx.save//
 Jul2716 11668_ 21447  21445 5558   
 Parallel job on  1  processors
Processing $rem in /usr/usc/qchem/4.4/config/preferences.
 MEM_TOTAL  2000 
The previous job contains 0 fragments, simply inherited here

Checking the input file for inconsistencies... 	...done.

--------------------------------------------------------------
User input:
--------------------------------------------------------------

$comment
-----------------------
A GEOMETRY OPTIMIZATION
-----------------------
$end

$molecule
READ
$end

$rem
JOBTYPE   OPT
METHOD   B3LYP
BASIS   GEN
ECP   GEN
SCF_GUESS   READ
MAX_SCF_CYCLES   200
SCF_CONVERGENCE 8
SCF_PRINT 1
PDB_PRINT 2
THRESH 14
VARTHRESH 14
INCDFT FALSE
SYMMETRY False
Sym_ignore True
SCF_ALGORITHM GDM
XC_GRID 000128000302
GEOM_OPT_MAX_CYCLES 200
DFT_D           EMPIRICAL_GRIMME3
DFT_D3_S6       1000
DFT_D3_RS6     1261
DFT_D3_S8      1703
DFT_D3_3BODY    FALSE
SCF_PRINT 1
PDB_PRINT 2
$end

$basis
O
6-31+G**
****
S
6-31+G**
****
Zr
LanL2DZ
****
$end

$ecp
Zr
LanL2DZ
****
$end

--------------------------------------------------------------
 ----------------------------------------------------------------
             Standard Nuclear Orientation (Angstroms)
    I     Atom           X                Y                Z
 ----------------------------------------------------------------
    1      Zr      1.5505800000    -0.2970800000     0.2005500000
    2      Zr     -0.5177600000     1.4907000000     0.1995200000
    3      Zr     -1.0322800000    -1.1941600000     0.1998800000
    4      S       1.3584100000     1.5702400000    -1.1220900000
    5      S      -2.0402000000     0.3903400000    -1.1213200000
    6      S       0.6814400000    -1.9597800000    -1.1232200000
    7      S       0.0000500000    -0.0003700000     1.9103900000
 ----------------------------------------------------------------
 Nuclear Repulsion Energy =   782.0782988978 hartrees
 There are       50 alpha and       50 beta electrons

 Q-Chem warning in module /home/scratch/svnadmin/11668_zgan/qchem/forms1/BasisType.C, line 1419:

 Setting pure/cartesian flag to 2111 for general basis


 Requested basis set is non-standard
 There are 48 shells and 154 basis functions

 Total QAlloc Memory Limit   2000 MB
 Mega-Array Size        61 MB
 MEM_STATIC part        62 MB
 A cutoff of  1.0D-14 yielded   1152 shell pairs
 There are     12008 function pairs (     13653 Cartesian)
 
 -------------------------------------------------------
 OpenMP Integral Computing Module                       
 Release: version 1.0, May 2013, Q-Chem Inc. Pittsburgh 
[...]
   ------- Leaving GDM -- hopefully with a step in the right direction! --------
 
   11   -1732.8184830125      3.78E-06  Gap = -101.67 eV  Normal BFGS step
 
   ------------------- Entering Geometric Direct Minimization ------------------
   GDM::trust : actual energy change is        2.250999386887997E-011
   GDM::trust : predicted energy change was   -1.250720785654278E-010
   GDM::trust : updated trust radius is        0.108900000000000     
   GDM::WARNING energy changes are now smaller than effective accuracy.
   GDM::        calculation will continue, but THRESH should be increased
   GDM::        or SCF_CONVERGENCE decreased.
   GDM::        effective_thresh =   4.999999999999999E-010
   GDM:         diagonal hessian shift is      0.000000000000000E+000
   GDM::PreWSS: input subspace size is                 11
   GDM::PreWSS: working subspace size set to           11
   GDM::PrEWSS: # of linearly dependent vectors =           10
   GDM::PrEWSS: Max dev from orthonormality =   1.980360320175123E-014
   GDM::BFGS:   lowest Hinv e-value    0.186584564222108     
   GDM::BFGS:   highest Hinv e-value    1.30551714041487     
   GDM::      : max scaling in EWCs is          2.61030105862425     
   GDM::      : max rotation in step is        2.049238882910967E-006
   GDM::        grad.step =  -9.539251502304966E-011
   ------- Leaving GDM -- hopefully with a step in the right direction! --------
 
   12   -1732.8184830125      5.60E-06  Gap = -101.67 eV  Normal BFGS step
 
   ------------------- Entering Geometric Direct Minimization ------------------
   GDM::trust : actual energy change is       -4.706635081674904E-011
   GDM::trust : predicted energy change was   -1.430887725345745E-010
   GDM::trust : updated trust radius is        0.330000000000000     
   GDM:         diagonal hessian shift is      0.000000000000000E+000
   GDM::PreWSS: input subspace size is                 12
   GDM::PreWSS: working subspace size set to           12
   GDM::PrEWSS: # of linearly dependent vectors =           11
   GDM::PrEWSS: Max dev from orthonormality =   9.335587858316785E-014
   GDM::BFGS:   lowest Hinv e-value    0.203723634564974     
   GDM::BFGS:   highest Hinv e-value    1.30239084321476     
   GDM::      : max scaling in EWCs is          2.61031737609327     
   GDM::      : max rotation in step is       -1.276610709020188E-006
   GDM::        grad.step =  -3.461093212416570E-011
   ------- Leaving GDM -- hopefully with a step in the right direction! --------
 
   13   -1732.8184830126      1.51E-06  Gap = -101.67 eV  Normal BFGS step
 
   ------------------- Entering Geometric Direct Minimization ------------------
   GDM::trust : actual energy change is       -1.614353095646948E-011
   GDM::trust : predicted energy change was   -5.191639818624854E-011
   GDM::trust : updated trust radius is        0.330000000000000     
   GDM:         diagonal hessian shift is      0.000000000000000E+000
   GDM::PreWSS: input subspace size is                 13
   GDM::PreWSS: working subspace size set to           13
   GDM::PrEWSS: # of linearly dependent vectors =           12
   GDM::PrEWSS: Max dev from orthonormality =   5.809779740628684E-013
   GDM::BFGS:   lowest Hinv e-value    0.208454667208514     
   GDM::BFGS:   highest Hinv e-value    1.30490321015164     
   GDM::      : max scaling in EWCs is          2.61032550344983     
   GDM::      : max rotation in step is       -6.793079676954910E-007
   GDM::        grad.step =  -1.803591299444100E-011
   ------- Leaving GDM -- hopefully with a step in the right direction! --------
 
   14   -1732.8184830126      1.33E-06  Gap = -101.67 eV  Normal BFGS step
 
   ------------------- Entering Geometric Direct Minimization ------------------
   GDM::trust : actual energy change is       -1.091393642127514E-011
   GDM::trust : predicted energy change was   -2.705386949166150E-011
   GDM::trust : updated trust radius is        0.330000000000000     
   GDM:         diagonal hessian shift is      0.000000000000000E+000
   GDM::PreWSS: input subspace size is                 14
   GDM::PreWSS: working subspace size set to           14
   GDM::PrEWSS: # of linearly dependent vectors =           13
   GDM::PrEWSS: Max dev from orthonormality =   1.147526518252562E-012
   GDM::BFGS:   lowest Hinv e-value    0.210005984946499     
   GDM::BFGS:   highest Hinv e-value    1.30154080225987     
   GDM::      : max scaling in EWCs is          2.61031935664808     
   GDM::      : max rotation in step is        2.108109360103840E-007
   GDM::        grad.step =  -2.444029009399536E-012
   ------- Leaving GDM -- hopefully with a step in the right direction! --------
 
   15   -1732.8184830126      2.23E-07  Gap = -101.67 eV  Normal BFGS step
 
   ------------------- Entering Geometric Direct Minimization ------------------
   GDM::trust : actual energy change is       -7.275957614183426E-012
   GDM::trust : predicted energy change was   -3.666043514099305E-012
   GDM::trust : updated trust radius is        0.330000000000000     
   GDM:         diagonal hessian shift is      0.000000000000000E+000
   GDM::PreWSS: input subspace size is                 15
   GDM::PreWSS: working subspace size set to           15
   GDM::PrEWSS: # of linearly dependent vectors =           14
   GDM::PrEWSS: Max dev from orthonormality =   1.332056687175509E-011
   GDM::BFGS:   lowest Hinv e-value    0.208028778874806     
   GDM::BFGS:   highest Hinv e-value    1.30042590418721     
   GDM::      : max scaling in EWCs is          2.61031847321776     
   GDM::      : max rotation in step is        8.885637644179739E-008
   GDM::        grad.step =  -5.448449952460284E-013
   ------- Leaving GDM -- hopefully with a step in the right direction! --------
 
   16   -1732.8184830126      2.10E-07  Gap = -101.67 eV  Normal BFGS step
 
   ------------------- Entering Geometric Direct Minimization ------------------
   GDM::trust : actual energy change is        1.000444171950221E-011
   GDM::trust : predicted energy change was   -8.172674928690429E-013
   GDM::trust : updated trust radius is        0.108900000000000     
   GDM::WARNING energy changes are now smaller than effective accuracy.
   GDM::        calculation will continue, but THRESH should be increased
   GDM::        or SCF_CONVERGENCE decreased.
   GDM::        effective_thresh =   4.999999999999999E-010
   GDM:         diagonal hessian shift is      0.000000000000000E+000
   GDM::PreWSS: input subspace size is                 16
   GDM::PreWSS: working subspace size set to           16
   GDM::PrEWSS: # of linearly dependent vectors =           15
   GDM::PrEWSS: Max dev from orthonormality =   6.907041605330733E-011
   GDM::BFGS:   lowest Hinv e-value    0.203523547919810     
   GDM::BFGS:   highest Hinv e-value    1.30139175651537     
   GDM::      : max scaling in EWCs is          2.61031954940753     
   GDM::      : max rotation in step is        1.725751598997799E-008
   GDM::        grad.step =  -1.669467159328956E-014
   ------- Leaving GDM -- hopefully with a step in the right direction! --------
 
   17   -1732.8184830126      3.45E-08  Gap = -101.67 eV  Normal BFGS step
 
   ------------------- Entering Geometric Direct Minimization ------------------
   GDM::trust : actual energy change is        3.183231456205249E-012
   GDM::trust : predicted energy change was   -2.504200738993434E-014
   GDM::trust : updated trust radius is        0.108900000000000     
   GDM::WARNING energy changes are now smaller than effective accuracy.
   GDM::        calculation will continue, but THRESH should be increased
   GDM::        or SCF_CONVERGENCE decreased.
   GDM::        effective_thresh =   4.999999999999999E-010
   GDM:         diagonal hessian shift is      0.000000000000000E+000
   GDM::PreWSS: input subspace size is                 17
   GDM::PreWSS: working subspace size set to           17
   GDM::PrEWSS: # of linearly dependent vectors =           16
   GDM::PrEWSS: Max dev from orthonormality =   6.277414699162875E-011
   GDM::BFGS:   lowest Hinv e-value    0.209501184742009     
   GDM::BFGS:   highest Hinv e-value    1.29814148652346     
   GDM::      : max scaling in EWCs is          2.61031943627204     
   GDM::      : max rotation in step is        7.029168201163898E-009
   GDM::        grad.step =  -3.373265363327448E-015
   ------- Leaving GDM -- hopefully with a step in the right direction! --------
 
   18   -1732.8184830126      9.67E-09 Convergence criterion met
 ---------------------------------------
 One-Electron    Energy = -3864.5994778851
 Total Coulomb   Energy =  1537.2226110950
 Alpha Exchange  Energy =   -11.6249553478
 Beta  Exchange  Energy =   -11.6249553478
 DFT   Exchange  Energy =   -92.5861897147
 DFT Correlation Energy =    -4.7988348740
 Nuclear Repu.   Energy =   715.1933190618
 Nuclear Attr.   Energy = -5525.4889879907
 Kinetic         Energy =  1660.8895101056
 SCF time:  CPU 153.68 s  wall 16.07 s
 SCF   energy in the final basis set = -1732.8184830126
 Total energy in the final basis set = -1732.8184830126
 
 --------------------------------------------------------------
 
                    Orbital Energies (a.u.)
 --------------------------------------------------------------
 
 Alpha MOs
 -- Occupied --
-88.849 -88.832 -88.823 -88.823  -7.926  -7.911  -7.901  -7.901
 -5.886  -5.886  -5.885  -5.871  -5.870  -5.870  -5.861  -5.861
 -5.860  -5.860  -5.860  -5.860  -2.038  -2.036  -2.020  -1.249
 -1.244  -1.242  -1.240  -1.238  -1.233  -1.226  -1.208  -1.203
 -0.680  -0.664  -0.651  -0.647  -0.327  -0.326  -0.321  -0.305
 -0.302  -0.298  -0.291  -0.287  -0.279  -0.274  -0.257  -0.254
 -0.204  -0.180
 -- Virtual --
 -0.106  -0.094  -0.093  -0.078  -0.076  -0.061  -0.059  -0.051
 -0.050  -0.047  -0.043  -0.030  -0.006   0.006   0.014   0.017
  0.021   0.026   0.027   0.034   0.040   0.044   0.045   0.046
  0.054   0.058   0.085   0.090   0.093   0.099   0.099   0.105
  0.115   0.125   0.125   0.126   0.132   0.142   0.146   0.146
  0.148   0.177   0.184   0.200   0.211   0.225   0.228   0.235
  0.239   0.249   0.259   0.261   0.275   0.276   0.281   0.287
  0.313   0.328   0.329   0.336   0.350   0.357   0.376   0.410
  0.535   0.540   0.557   0.558   0.563   0.579   0.587   0.593
  0.601   0.605   0.617   0.621   0.643   0.689   0.694   0.729
  0.733   0.796   0.809   0.812   0.814   0.822   0.837   0.860
  0.864   0.870   0.876   0.882   0.891   0.899   0.943   0.951
  0.956   0.994   1.005   1.035   1.042   6.812   7.138   7.738
 --------------------------------------------------------------
 
          Ground-State Mulliken Net Atomic Charges

     Atom                 Charge (a.u.)
  ----------------------------------------
      1 Zr                    0.409551
      2 Zr                    0.487674
      3 Zr                    0.409460
      4 S                    -0.423746
      5 S                    -0.423817
      6 S                    -0.300201
      7 S                    -0.158919
  ----------------------------------------
  Sum of atomic charges =     0.000000

 -----------------------------------------------------------------
                    Cartesian Multipole Moments
 -----------------------------------------------------------------
    Charge (ESU x 10^10)
                 0.0000
    Dipole Moment (Debye)
         X       0.3082      Y      -0.8855      Z       4.4541
       Tot       4.5517
    Quadrupole Moments (Debye-Ang)
        XX    -115.2984     XY       1.1375     YY    -118.1824
        XZ      -0.6562     YZ       1.8899     ZZ    -132.3283
    Octopole Moments (Debye-Ang^2)
       XXX      51.1633    XXY     -34.1053    XYY     -45.0134
       YYY      16.4496    XXZ      44.2384    XYZ       4.1184
       YYZ      33.7953    XZZ       0.6476    YZZ      -1.8824
       ZZZ      23.6830
    Hexadecapole Moments (Debye-Ang^3)
      XXXX   -1612.8787   XXXY     -38.5954   XXYY    -499.8413
      XYYY     -58.0202   YYYY   -1367.7264   XXXZ     -34.6984
      XXYZ      27.9729   XYYZ      10.3882   YYYZ      41.8977
      XXZZ    -417.8874   XYZZ     -19.1530   YYZZ    -369.2848
      XZZZ     -15.7425   YZZZ      45.2309   ZZZZ    -886.9412
 -----------------------------------------------------------------
 Calculating analytic gradient of the SCF energy
 Gradient of SCF Energy
            1           2           3           4           5           6
    1  -0.0000315   0.0000004   0.0000197   0.0000251  -0.0000256   0.0000042
    2   0.0000086  -0.0000042   0.0000244   0.0000090  -0.0000115  -0.0000148
    3  -0.0000161   0.0000758  -0.0000071  -0.0000147  -0.0000125  -0.0000181
            7
    1   0.0000076
    2  -0.0000115
    3  -0.0000075
 Max gradient component =       7.585E-05
 RMS gradient           =       2.268E-05
 Gradient time:  CPU 39.20 s  wall 5.70 s
 Geometry Optimization Parameters
   NAtoms,    NIC,     NZ,  NCons,   NDum,   NFix, NCnnct, MaxDiis
        7     137       0       0       0       0       0       0

 Cartesian Hessian Update
 Hessian Updated using BFGS Update


** GEOMETRY OPTIMIZATION IN DELOCALIZED INTERNAL COORDINATES **
   Searching for a Minimum

   Optimization Cycle:  16

                       Coordinates (Angstroms)
     ATOM                X               Y               Z
      1  Zr        1.7631011984   -0.2084847874    0.1168921971
      2  Zr       -0.4972429965    1.4308360848    0.0166547125
      3  Zr       -1.2540135269   -1.2564400078    0.1167358513
      4  S         1.6952545142    1.8846702075   -1.0939787449
      5  S        -2.4988779318    0.4281281235   -1.0938348148
      6  S         0.7519644785   -2.1642173276   -0.9487615541
      7  S         0.0400542641   -0.1146022931    2.0300023530
   Point Group: c1    Number of degrees of freedom:    15


   Energy is  -1732.818483013

 Hessian Updated using BFGS Update

 15 Hessian modes will be used to form the next step
  Hessian Eigenvalues:
     0.008305    0.018299    0.039743    0.044108    0.086934    0.094786
     0.096413    0.113500    0.114527    0.134611    0.141683    0.143916
     0.145729    0.152137    0.191157

 Minimum Search - Taking Simple RFO Step
 Searching for Lamda that Minimizes Along All modes
 Value Taken    Lamda =   0.00000000
 Step Taken.  Stepsize is  0.001187

                             Maximum     Tolerance    Cnvgd?
         Gradient           0.000027      0.000300     YES
         Displacement       0.000701      0.001200     YES
         Energy change      0.000000      0.000001     YES


                       Distance Matrix (Angstroms)
             Zr(  1)   Zr(  2)   Zr(  3)   S (  4)   S (  5)   S (  6)
   Zr(  2)  2.794025
   Zr(  3)  3.193930  2.793595
   S (  4)  2.419113  2.499303  4.475554
   S (  5)  4.476115  2.499030  2.419285  4.439849
   S (  6)  2.445998  3.926443  2.446077  4.159853  4.160442
   S (  7)  2.576372  2.594347  2.576624  4.061531  4.061907  3.685210

 
 Final energy is   -1732.81848301258     


 ******************************
 **  OPTIMIZATION CONVERGED  **
 ******************************

                       Coordinates (Angstroms)
     ATOM                X               Y               Z
      1  Zr        1.7631011984   -0.2084847874    0.1168921971
      2  Zr       -0.4972429965    1.4308360848    0.0166547125
      3  Zr       -1.2540135269   -1.2564400078    0.1167358513
      4  S         1.6952545142    1.8846702075   -1.0939787449
      5  S        -2.4988779318    0.4281281235   -1.0938348148
      6  S         0.7519644785   -2.1642173276   -0.9487615541
      7  S         0.0400542641   -0.1146022931    2.0300023530

Z-matrix Print:
$molecule
0 1
Zr
S  1 2.499030
Zr 2 2.419285 1 69.199684
S  3 2.446077 2 117.543753 1 79.561706 0
Zr 4 2.445998 3 81.517964 2 -86.219486 0
S  5 2.419113 4 117.526705 3 86.214439 0
S  5 2.576372 4 94.369160 3 -27.570191 0
$end

 
 --------------------------------------------------------------
 
                    Orbital Energies (a.u.)
 --------------------------------------------------------------
 
 Alpha MOs
 -- Occupied --
-88.849 -88.832 -88.823 -88.823  -7.926  -7.911  -7.901  -7.901
 -5.886  -5.886  -5.885  -5.871  -5.870  -5.870  -5.861  -5.861
 -5.860  -5.860  -5.860  -5.860  -2.038  -2.036  -2.020  -1.249
 -1.244  -1.242  -1.240  -1.238  -1.233  -1.226  -1.208  -1.203
 -0.680  -0.664  -0.651  -0.647  -0.327  -0.326  -0.321  -0.305
 -0.302  -0.298  -0.291  -0.287  -0.279  -0.274  -0.257  -0.254
 -0.204  -0.180
 -- Virtual --
 -0.106  -0.094  -0.093  -0.078  -0.076  -0.061  -0.059  -0.051
 -0.050  -0.047  -0.043  -0.030  -0.006   0.006   0.014   0.017
  0.021   0.026   0.027   0.034   0.040   0.044   0.045   0.046
  0.054   0.058   0.085   0.090   0.093   0.099   0.099   0.105
  0.115   0.125   0.125   0.126   0.132   0.142   0.146   0.146
  0.148   0.177   0.184   0.200   0.211   0.225   0.228   0.235
  0.239   0.249   0.259   0.261   0.275   0.276   0.281   0.287
  0.313   0.328   0.329   0.336   0.350   0.357   0.376   0.410
  0.535   0.540   0.557   0.558   0.563   0.579   0.587   0.593
  0.601   0.605   0.617   0.621   0.643   0.689   0.694   0.729
  0.733   0.796   0.809   0.812   0.814   0.822   0.837   0.860
  0.864   0.870   0.876   0.882   0.891   0.899   0.943   0.951
  0.956   0.994   1.005   1.035   1.042   6.812   7.138   7.738
 --------------------------------------------------------------
 
          Ground-State Mulliken Net Atomic Charges

     Atom                 Charge (a.u.)
  ----------------------------------------
      1 Zr                    0.409551
      2 Zr                    0.487674
      3 Zr                    0.409460
      4 S                    -0.423746
      5 S                    -0.423817
      6 S                    -0.300201
      7 S                    -0.158919
  ----------------------------------------
  Sum of atomic charges =     0.000000

 -----------------------------------------------------------------
                    Cartesian Multipole Moments
 -----------------------------------------------------------------
    Charge (ESU x 10^10)
                 0.0000
    Dipole Moment (Debye)
         X       0.3082      Y      -0.8855      Z       4.4541
       Tot       4.5517
    Quadrupole Moments (Debye-Ang)
        XX    -115.2984     XY       1.1375     YY    -118.1824
        XZ      -0.6562     YZ       1.8899     ZZ    -132.3283
    Octopole Moments (Debye-Ang^2)
       XXX      51.1633    XXY     -34.1053    XYY     -45.0134
       YYY      16.4496    XXZ      44.2384    XYZ       4.1184
       YYZ      33.7953    XZZ       0.6476    YZZ      -1.8824
       ZZZ      23.6830
    Hexadecapole Moments (Debye-Ang^3)
      XXXX   -1612.8787   XXXY     -38.5954   XXYY    -499.8413
      XYYY     -58.0202   YYYY   -1367.7264   XXXZ     -34.6984
      XXYZ      27.9729   XYYZ      10.3882   YYYZ      41.8977
      XXZZ    -417.8874   XYZZ     -19.1530   YYZZ    -369.2848
      XZZZ     -15.7425   YZZZ      45.2309   ZZZZ    -886.9412
 -----------------------------------------------------------------
Archival summary:
1\1\hpc3463\OPT\ProcedureUnspecified\BasisUnspecified\r34(+,1)\liqiuy\FriJan1719:05:592020FriJan1719:05:592020\0\\#,OPT,ProcedureUnspecified,BasisUnspecified,\\84,1\Zr\S,1,2.49903\Zr,2,2.41928,1,69.1997\S,3,2.44608,2,117.544,1,79.5617,0\Zr,4,2.446,3,81.518,2,-86.2195,0\S,5,2.41911,4,117.527,3,86.2144,0\S,5,2.57637,4,94.3692,3,-27.5702,0\\\@

 Total job time:  466.93s(wall), 4058.46s(cpu) 
 Fri Jan 17 19:05:59 2020

        *************************************************************
        *                                                           *
        *  Thank you very much for using Q-Chem.  Have a nice day.  *
        *                                                           *
        *************************************************************


0 sent ACK to 0 
now end server 0 ... 
cleanup process ... done
