
Running Job 1 of 2 ZrOx.in
qchem ZrOx.in_19145.0 /tmp/5732519.priya/ZrOx.save/ 1
/usr/usc/qchem/4.4/bin/mpi/mpirun_qchem -machinefile /usr/usc/qchem/4.4/bin/mpi/machines -np 1 /usr/usc/qchem/4.4/exe/qcprog.exe ZrOx.in_19145.0 /tmp/5732519.priya/ZrOx.save/

Process 0 of 1 is on hpc3926.hpcc.usc.edu - thread support 0
initial socket setup ...start
initial socket setup ...done 
now start server 0 ... 
Check license passed

                  Welcome to Q-Chem
     A Quantum Leap Into The Future Of Chemistry


 Q-Chem 4.4, Q-Chem, Inc., Pleasanton, CA (2016)

 Y. Shao,  Z. Gan,  E. Epifanovsky,  A. T. B. Gilbert,  M. Wormit,  
 J. Kussmann,  A. W. Lange,  A. Behn,  J. Deng,  X. Feng,  D. Ghosh,  
 M. Goldey,  P. R. Horn,  L. D. Jacobson,  I. Kaliman,  F.Rob,  
 R. Z. Khaliullin,  T. Kus,  A. Landau,  J. Liu,  E. I. Proynov,  Y. M. Rhee,  
 R. M. Richard,  M. A. Rohrdanz,  R. P. Steele,  E. J. Sundstrom,  
 H. L. Woodcock III,  P. M. Zimmerman,  D. Zuev,  B. Albrecht,  E. Alguire,  
 B. Austin,  S. A. Baeppler,  G. J. O. Beran,  Y. A. Bernard,  E. Berquist,  
 K. Brandhorst,  K. B. Bravaya,  S. T. Brown,  D. Casanova,  C.-M. Chang,  
 Y. Chen,  S. H. Chien,  K. D. Closser,  M. P. Coons,  D. L. Crittenden,  
 S. Dasgupta,  M. Diedenhofen,  R. A. DiStasio Jr.,  H. Do,  A. D. Dutoi,  
 R. G. Edgar,  P.-T. Fang,  S. Fatehi,  Q. Feng,  L. Fusti-Molnar,  
 A. Ghysels,  A. Golubeva-Zadorozhnaya,  J. Gomes,  A. Gunina,  
 M. W. D. Hanson-Heine,  P. H. P. Harbach,  A. W. Hauser,  E. G. Hohenstein,  
 Z. C. Holden,  K. Hui,  T.-C. Jagau,  H. Ji,  B. Kaduk,  K. Khistyaev,  
 Jaehoon Kim,  Jihan Kim,  R. A. King,  P. Klunzinger,  D. Kosenkov,  
 T. Kowalczyk,  C. M. Krauter,  A. Kunitsa,  K. U. Lao,  A. Laurent,  
 K. V. Lawler,  D. Lefrancois,  S. Lehtola,  S. V. Levchenko,  C. Y. Lin,  
 Y.-S. Lin,  F. Liu,  E. Livshits,  R. C. Lochan,  A. Luenser,  P. Manohar,  
 S. F. Manzer,  S.-P. Mao,  Y. Mao,  N. Mardirossian,  A. V. Marenich,  
 L. A. Martinez-Martinez,  S. A. Maurer,  N. J. Mayhall,  J.-M. Mewes,  
 A. F. Morrison,  K. Nanda,  C. M. Oana,  R. Olivares-Amaya,  D. P. O'Neill,  
 J. A. Parkhill,  T. M. Perrine,  R. Peverati,  P. A. Pieniazek,  F. Plasser,  
 A. Prociuk,  D. R. Rehn,  E. Rosta,  N. J. Russ,  N. Sergueev,  
 S. M. Sharada,  S. Sharma,  D. W. Small,  A. Sodt,  T. Stauch,  T. Stein,  
 D. Stuck,  Y.-C. Su,  A. J. W. Thom,  T. Tsuchimochi,  L. Vogt,  O. Vydrov,  
 T. Wang,  M. A. Watson,  J. Wenzel,  A. White,  C. F. Williams,  
 V. Vanovschi,  S. Yeganeh,  S. R. Yost,  Z.-Q. You,  I. Y. Zhang,  X. Zhang,  
 Y. Zhao,  B. R. Brooks,  G. K. L. Chan,  D. M. Chipman,  C. J. Cramer,  
 W. A. Goddard III,  M. S. Gordon,  W. J. Hehre,  A. Klamt,  
 H. F. Schaefer III,  M. W. Schmidt,  C. D. Sherrill,  D. G. Truhlar,  
 A. Warshel,  X. Xu,  A. Aspuru-Guzik,  R. Baer,  A. T. Bell,  N. A. Besley,  
 J.-D. Chai,  A. Dreuw,  B. D. Dunietz,  T. R. Furlani,  S. R. Gwaltney,  
 C.-P. Hsu,  Y. Jung,  J. Kong,  D. S. Lambrecht,  W. Liang,  C. Ochsenfeld,  
 V. A. Rassolov,  L. V. Slipchenko,  J. E. Subotnik,  T. Van Voorhis,  
 J. M. Herbert,  A. I. Krylov,  P. M. W. Gill,  M. Head-Gordon

 Contributors to earlier versions of Q-Chem not listed above: 
 R. D. Adamson,  J. Baker,  E. F. C. Byrd,  A. K. Chakraborty,  C.-L. Cheng,  
 H. Dachsel,  R. J. Doerksen,  G. Hawkins,  A. Heyden,  S. Hirata,  
 G. Kedziora,  F. J. Keil,  C. Kelley,  P. P. Korambath,  W. Kurlancheek,  
 A. M. Lee,  M. S. Lee,  D. Liotard,  I. Lotan,  P. E. Maslen,  N. Nair,  
 D. Neuhauser,  R. Olson,  B. Peters,  J. Ritchie,  N. E. Schultz,  
 N. Shenvi,  A. C. Simmonett,  K. S. Thanthiriwatte,  Q. Wu,  W. Zhang

 Please cite Q-Chem as follows:
 Y. Shao et al., Mol. Phys. 113, 184-215 (2015)
 DOI: 10.1080/00268976.2014.952696

 Q-Chem 4.4.1 for Intel X86 Linux

 Parts of Q-Chem use Armadillo 5.200.1 (Boston Tea Smuggler).
 http://arma.sourceforge.net/

 Q-Chem begins on Fri Jan 17 18:58:02 2020  

Host: 
0

     Scratch files written to /tmp/5732519.priya/ZrOx.save//
 Jul2716 11668_ 21447  21445 5558   
 Parallel job on  1  processors
Processing $rem in /usr/usc/qchem/4.4/config/preferences.
 MEM_TOTAL  2000 

Checking the input file for inconsistencies... 	...done.

--------------------------------------------------------------
User input:
--------------------------------------------------------------
$comment
--------------------------------------------------------
A SINGLE POINT DFT CALCULATION WITH BASIS SET PROJECTION
--------------------------------------------------------
$end

$molecule
0 1
Zr 0.00000 0.00000 2.06747
O 1.44793 0.00000 3.00538
O -1.44793 0.00000 3.00538
O 0.00000 0.00000 0.16023
Zr 0.00000 0.00000 -1.76130
S 0.00000 0.00000 -3.90740
$end

$rem
JOBTYPE   SP
METHOD   B3LYP
BASIS   GEN
ECP   GEN
MAX_SCF_CYCLES   200
SCF_CONVERGENCE 8
SCF_PRINT 1
PDB_PRINT 2
THRESH 14
VARTHRESH 14
INCDFT FALSE
SYMMETRY False
Sym_ignore True
SCF_ALGORITHM GDM
XC_GRID 000128000302
DFT_D           EMPIRICAL_GRIMME3
DFT_D3_S6       1000
DFT_D3_RS6     1261
DFT_D3_S8      1703
DFT_D3_3BODY    FALSE
$end

$basis
O
6-31+G**
****
S
6-31+G**
****
Zr
LanL2DZ
****
$end

$ecp
Zr
LanL2DZ
****
$end

--------------------------------------------------------------
 ----------------------------------------------------------------
             Standard Nuclear Orientation (Angstroms)
    I     Atom           X                Y                Z
 ----------------------------------------------------------------
    1      Zr      0.0000000000     0.0000000000     2.0674700000
    2      O       1.4479300000     0.0000000000     3.0053800000
    3      O      -1.4479300000     0.0000000000     3.0053800000
    4      O       0.0000000000     0.0000000000     0.1602300000
    5      Zr      0.0000000000     0.0000000000    -1.7613000000
    6      S       0.0000000000     0.0000000000    -3.9074000000
 ----------------------------------------------------------------
 Nuclear Repulsion Energy =   285.3552014003 hartrees
 There are       32 alpha and       32 beta electrons

 Q-Chem warning in module /home/scratch/svnadmin/11668_zgan/qchem/forms1/BasisType.C, line 1419:

 Setting pure/cartesian flag to 2111 for general basis


 Requested basis set is non-standard
 There are 37 shells and 120 basis functions

 Total QAlloc Memory Limit   2000 MB
 Mega-Array Size        61 MB
 MEM_STATIC part        62 MB

                       Distance Matrix (Angstroms)
             Zr(  1)   O (  2)   O (  3)   O (  4)   Zr(  5)
   O (  2)  1.725160
   O (  3)  1.725160  2.895860
   O (  4)  1.907240  3.192394  3.192394
   Zr(  5)  3.828770  4.981741  4.981741  1.921530
   S (  6)  5.974870  7.062792  7.062792  4.067630  2.146100
 
 A cutoff of  1.0D-14 yielded    655 shell pairs
 There are      6986 function pairs (      7956 Cartesian)
 
 -------------------------------------------------------
 OpenMP Integral Computing Module                       
 Release: version 1.0, May 2013, Q-Chem Inc. Pittsburgh 
 -------------------------------------------------------
 Integral Job Info:
 Integral job number is                      11
 Integral operator is                         1
 short-range coefficients                     0
 long-range coefficients              100000000
 Omega coefficients                           0
 if combine SR and LR in K                    0
 Integral screening is                        0
 Integral computing path is                   2
 max size of driver memory is            800000
 size of driver memory is                593474
 size of scratch memory is             15166112
 max col of scratch BK array               1296
 max len of scratch array in speh3          155
 max len of scratch index in speh4           18
 max int batch size is                      520
 min int batch size is                       52
 fixed nKL is                                52
 max L of basis functions is                  2
 order of int derivative is                   0
 number of shells is                         37
 number of basis is                         128
 number of cartesian basis is               128
 number of contracted shell pairs           655
 number of primitive shell pairs           3034
 maxK2 (contraction) of shell pair           36
 max number of K2 of shell pair               1
 max number of CS2 of shell pair             47
 max number of PS2 of shell pair            216
 mem total for path MDJ                   28696
 -------------------------------------------------------
 Requested basis set is non-standard
 Compound shells will be simplified
 There are 50 shells and 120 basis functions
 A cutoff of  1.0D-14 yielded   1184 shell pairs
 There are      6942 function pairs (      7911 Cartesian)
 Smallest overlap matrix eigenvalue = 7.29E-04

 Scale SEOQF with 1.000000e-01/1.000000e-01/1.000000e-01

 Standard Electronic Orientation quadrupole field applied
 Nucleus-field energy     =    -0.0000000500 hartrees
 Guess MOs from core Hamiltonian diagonalization
 A restricted hybrid HF-DFT SCF calculation will be
 performed using Geometric Direct Minimization
 Exchange:     0.2000 Hartree-Fock + 0.0800 Slater + 0.7200 B88
 Correlation:  0.1900 VWN1RPA + 0.8100 LYP
 Using Euler-Maclaurin-Lebedev (128,302) quadrature formula
 Dispersion:   Grimme D3
 SCF converges when RMS gradient is below 1.0E-08
 Maximum number of minimization steps = 200
 using 12 threads for integral computing 
 -------------------------------------------------------
 OpenMP BLAS3 based DFT computing Module                
 Release: version 1.0, May 2013, Q-Chem Inc. Pittsburgh 
 -------------------------------------------------------
 
   ------------------- Entering Geometric Direct Minimization ------------------
   GDM:         diagonal hessian shift is      0.000000000000000E+000
   GDM::PreWSS: input subspace size is                  1
   GDM::PreWSS: working subspace size set to            1
   GDM::PrEWSS: # of linearly dependent vectors =            0
   GDM::PrEWSS: Max dev from orthonormality =   0.000000000000000E+000
   GDM::BFGS:   lowest Hinv e-value     1.00000000000000     
   GDM::BFGS:   highest Hinv e-value    1.00000000000000     
   GDM::      : max scaling in EWCs is          1.41421356237309     
   GDM::      : max rotation in step is       -0.137752416466789     
   GDM::        grad.step =   -2.23065249486218     
   ------- Leaving GDM -- hopefully with a step in the right direction! --------
 
 ---------------------------------------
  Cycle       Energy        RMS Gradient
 ---------------------------------------
    1    -693.9378580219      2.00E+00  Gap = 0.00 eV  Descent step
 
   ------------------- Entering Geometric Direct Minimization ------------------
   GDM::trust : actual energy change is        -4.34312163492723     
   GDM::trust : predicted energy change was   -0.163350000000000     
   GDM::trust : updated trust radius is        0.330000000000000     
   GDM:         diagonal hessian shift is      0.000000000000000E+000
   GDM::PreWSS: input subspace size is                  2
   GDM::PreWSS: working subspace size set to            2
   GDM::PrEWSS: # of linearly dependent vectors =            0
   GDM::PrEWSS: Max dev from orthonormality =   8.999745393367675E-015
   GDM::BFGS:   lowest Hinv e-value    0.658833153108815     
   GDM::BFGS:   highest Hinv e-value    1.86713098405442     
   GDM::      : max scaling in EWCs is          1.41421356237309     
   GDM::      : max rotation in step is       -0.145342134399989     
   GDM::        grad.step =   -1.86156189263584     
   ------- Leaving GDM -- hopefully with a step in the right direction! --------
 
    2    -698.2809796569      1.76E+00  Gap = 0.00 eV  Descent step
 
   ------------------- Entering Geometric Direct Minimization ------------------
   GDM::trust : actual energy change is        -3.57461357519526     
   GDM::trust : predicted energy change was   -0.145623486514354     
   GDM::trust : updated trust radius is        0.330000000000000     
   GDM:         diagonal hessian shift is      0.000000000000000E+000
   GDM::PreWSS: input subspace size is                  3
   GDM::PreWSS: working subspace size set to            3
   GDM::PrEWSS: # of linearly dependent vectors =            0
   GDM::PrEWSS: Max dev from orthonormality =   6.245004513516506E-014
   GDM::BFGS:   lowest Hinv e-value    0.507739681905071     
   GDM::BFGS:   highest Hinv e-value    1.54538075091493     
   GDM::      : max scaling in EWCs is          2.82842712474619     
   GDM::      : max rotation in step is       -0.314714810951037     
   GDM::        grad.step =   -1.99870149554456     
   ------- Leaving GDM -- hopefully with a step in the right direction! --------
 
    3    -701.8555932321      3.07E+00  Gap = 0.00 eV  Descent step
 
   ------------------- Entering Geometric Direct Minimization ------------------
   GDM::trust : actual energy change is        -3.64992133691408     
   GDM::trust : predicted energy change was   -0.164134598595713     
   GDM::trust : updated trust radius is        0.330000000000000     
   GDM:         diagonal hessian shift is      0.000000000000000E+000
   GDM::PreWSS: input subspace size is                  4
   GDM::PreWSS: working subspace size set to            4
   GDM::PrEWSS: # of linearly dependent vectors =            0
   GDM::PrEWSS: Max dev from orthonormality =   3.404221349256886E-013
   GDM::BFGS:   lowest Hinv e-value    0.427494336739279     
   GDM::BFGS:   highest Hinv e-value    1.82686389826870     
   GDM::      : max scaling in EWCs is          2.82842712474619     
   GDM::      : max rotation in step is       -0.317532470844280     
   GDM::        grad.step =   -1.60993658726191     
   ------- Leaving GDM -- hopefully with a step in the right direction! --------
 
    4    -705.5055145690      1.90E+00  Gap = 0.00 eV  Descent step
 
   ------------------- Entering Geometric Direct Minimization ------------------
   GDM::trust : actual energy change is        -2.91581640745949     
   GDM::trust : predicted energy change was   -0.158254636848318     
   GDM::trust : updated trust radius is        0.330000000000000     
   GDM:         diagonal hessian shift is      0.000000000000000E+000
   GDM::PreWSS: input subspace size is                  5
   GDM::PreWSS: working subspace size set to            5
   GDM::PrEWSS: # of linearly dependent vectors =            0
   GDM::PrEWSS: Max dev from orthonormality =   1.655489981211566E-012
   GDM::BFGS:   lowest Hinv e-value    0.402439420607557     
   GDM::BFGS:   highest Hinv e-value    2.06199579194699     
   GDM::      : max scaling in EWCs is          2.82842712474619     
   GDM::      : max rotation in step is       -0.196061827879969     
   GDM::        grad.step =   -1.18447138727267     
   ------- Leaving GDM -- hopefully with a step in the right direction! --------
 
    5    -708.4213309764      7.54E-01  Gap = 0.00 eV  Descent step
 
   ------------------- Entering Geometric Direct Minimization ------------------
   GDM::trust : actual energy change is        -2.16096493934026     
   GDM::trust : predicted energy change was   -0.159394398789323     
   GDM::trust : updated trust radius is        0.330000000000000     
   GDM:         diagonal hessian shift is      0.000000000000000E+000
   GDM::PreWSS: input subspace size is                  6
   GDM::PreWSS: working subspace size set to            6
   GDM::PrEWSS: # of linearly dependent vectors =            0
   GDM::PrEWSS: Max dev from orthonormality =   1.645610731015879E-013
   GDM::BFGS:   lowest Hinv e-value    0.341906607409868     
   GDM::BFGS:   highest Hinv e-value    2.29324268809329     
   GDM::      : max scaling in EWCs is          2.82842712474619     
   GDM::      : max rotation in step is       -0.339057489811195     
   GDM::        grad.step =  -0.980269298603883     
   ------- Leaving GDM -- hopefully with a step in the right direction! --------
 
    6    -710.5822959158      1.08E+00  Gap = 0.00 eV  Descent step
 
   ------------------- Entering Geometric Direct Minimization ------------------
   GDM::trust : actual energy change is        -1.72955467604424     
   GDM::trust : predicted energy change was   -0.159392098200698     
   GDM::trust : updated trust radius is        0.330000000000000     
   GDM:         diagonal hessian shift is      0.000000000000000E+000
   GDM::PreWSS: input subspace size is                  7
   GDM::PreWSS: working subspace size set to            7
   GDM::PrEWSS: # of linearly dependent vectors =            0
   GDM::PrEWSS: Max dev from orthonormality =   9.386449950632425E-013
   GDM::BFGS:   lowest Hinv e-value    0.295384479807508     
   GDM::BFGS:   highest Hinv e-value    2.49622260107383     
   GDM::      : max scaling in EWCs is          2.82842712474619     
   GDM::      : max rotation in step is        0.509594036865608     
   GDM::        grad.step =  -0.869569118160645     
   ------- Leaving GDM -- hopefully with a step in the right direction! --------
 
    7    -712.3118505918      1.44E+00  Gap = 0.00 eV  Descent step
 
   ------------------- Entering Geometric Direct Minimization ------------------
   GDM::trust : actual energy change is        -1.49096524952267     
   GDM::trust : predicted energy change was   -0.157535326724301     
   GDM::trust : updated trust radius is        0.330000000000000     
   GDM:         diagonal hessian shift is      0.000000000000000E+000
   GDM::PreWSS: input subspace size is                  8
   GDM::PreWSS: working subspace size set to            8
   GDM::PrEWSS: # of linearly dependent vectors =            0
   GDM::PrEWSS: Max dev from orthonormality =   8.021291963977717E-013
   GDM::BFGS:   lowest Hinv e-value    0.280696356604475     
   GDM::BFGS:   highest Hinv e-value    3.15094043266974     
   GDM::      : max scaling in EWCs is          2.82842712474619     
   GDM::      : max rotation in step is        0.279797923267355     
   GDM::        grad.step =  -0.566891961020939     
   ------- Leaving GDM -- hopefully with a step in the right direction! --------
 
    8    -713.8028158413      5.15E-01  Gap = 0.00 eV  Descent step
 
   ------------------- Entering Geometric Direct Minimization ------------------
   GDM::trust : actual energy change is       -0.879613297364472     
   GDM::trust : predicted energy change was   -0.166669063875715     
   GDM::trust : updated trust radius is        0.330000000000000     
   GDM:         diagonal hessian shift is      0.000000000000000E+000
   GDM::PreWSS: input subspace size is                  9
   GDM::PreWSS: working subspace size set to            9
   GDM::PrEWSS: # of linearly dependent vectors =            0
   GDM::PrEWSS: Max dev from orthonormality =   4.914124662747099E-013
   GDM::BFGS:   lowest Hinv e-value    0.274406168442268     
   GDM::BFGS:   highest Hinv e-value    3.83420708457914     
   GDM::      : max scaling in EWCs is          2.82842712474619     
   GDM::      : max rotation in step is        0.224451324613266     
   GDM::        grad.step =  -0.349007977798573     
   ------- Leaving GDM -- hopefully with a step in the right direction! --------
 
    9    -714.6824291387      2.87E-01  Gap = 0.00 eV  Descent step
 
   ------------------- Entering Geometric Direct Minimization ------------------
   GDM::trust : actual energy change is       -0.547265433182247     
   GDM::trust : predicted energy change was   -0.161524232873158     
   GDM::trust : updated trust radius is        0.330000000000000     
   GDM:         diagonal hessian shift is      0.000000000000000E+000
   GDM::PreWSS: input subspace size is                 10
   GDM::PreWSS: working subspace size set to           10
   GDM::PrEWSS: # of linearly dependent vectors =            0
   GDM::PrEWSS: Max dev from orthonormality =   5.879498277128192E-013
   GDM::BFGS:   lowest Hinv e-value    0.242481600377744     
   GDM::BFGS:   highest Hinv e-value    4.41261841870604     
   GDM::      : max scaling in EWCs is          2.82842712474619     
   GDM::      : max rotation in step is        0.153848173460114     
   GDM::        grad.step =  -0.233716707106863     
   ------- Leaving GDM -- hopefully with a step in the right direction! --------
 
   10    -715.2296945719      2.56E-01  Gap = 0.00 eV  Descent step
 
   ------------------- Entering Geometric Direct Minimization ------------------
   GDM::trust : actual energy change is       -0.352968316053193     
   GDM::trust : predicted energy change was   -0.159813288890164     
   GDM::trust : updated trust radius is        0.330000000000000     
   GDM:         diagonal hessian shift is      0.000000000000000E+000
   GDM::PreWSS: input subspace size is                 11
   GDM::PreWSS: working subspace size set to           11
   GDM::PrEWSS: # of linearly dependent vectors =            0
   GDM::PrEWSS: Max dev from orthonormality =   1.472042973627019E-012
   GDM::BFGS:   lowest Hinv e-value    0.183103466291258     
   GDM::BFGS:   highest Hinv e-value    4.13284268271315     
   GDM::      : max scaling in EWCs is          2.82842712474619     
   GDM::      : max rotation in step is        0.320799340161231     
   GDM::        grad.step =  -0.240802028043718     
   ------- Leaving GDM -- hopefully with a step in the right direction! --------
 
   11    -715.5826628879      3.62E-01  Gap = 0.00 eV  Descent step
 
   ------------------- Entering Geometric Direct Minimization ------------------
   GDM::trust : actual energy change is       -0.145245436326263     
   GDM::trust : predicted energy change was   -0.214509753165652     
   GDM::trust : updated trust radius is        0.330000000000000     
   GDM:         diagonal hessian shift is      0.000000000000000E+000
   GDM::PreWSS: input subspace size is                 12
   GDM::PreWSS: working subspace size set to           12
   GDM::PrEWSS: # of linearly dependent vectors =            0
   GDM::PrEWSS: Max dev from orthonormality =   1.597291743316021E-012
   GDM::BFGS:   lowest Hinv e-value    0.188766011193752     
   GDM::BFGS:   highest Hinv e-value    5.19736421662985     
   GDM::      : max scaling in EWCs is          2.82842712474619     
   GDM::      : max rotation in step is       -0.237334777606963     
   GDM::        grad.step =  -0.396826267915562     
   ------- Leaving GDM -- hopefully with a step in the right direction! --------
 
   12    -715.7279083243      6.00E-01  Gap = 0.00 eV  Descent step
 
   ------------------- Entering Geometric Direct Minimization ------------------
   GDM::trust : actual energy change is       -0.391270643799317     
   GDM::trust : predicted energy change was   -0.305867495747966     
   GDM::trust : updated trust radius is        0.330000000000000     
   GDM:         diagonal hessian shift is      0.000000000000000E+000
   GDM::PreWSS: input subspace size is                 13
   GDM::PreWSS: working subspace size set to           13
   GDM::PrEWSS: # of linearly dependent vectors =            0
   GDM::PrEWSS: Max dev from orthonormality =   9.456740945879005E-013
   GDM::BFGS:   lowest Hinv e-value    0.113322680526763     
   GDM::BFGS:   highest Hinv e-value    4.54870987463001     
   GDM::      : max scaling in EWCs is          2.82842712474619     
   GDM::      : max rotation in step is       -0.354660370767940     
   GDM::        grad.step =  -0.260513437468504     
   ------- Leaving GDM -- hopefully with a step in the right direction! --------
 
   13    -716.1191789681      3.21E-01  Gap = 0.00 eV  Descent step
 
   ------------------- Entering Geometric Direct Minimization ------------------
   GDM::trust : actual energy change is       -0.178588746143873     
   GDM::trust : predicted energy change was   -0.250852863351848     
   GDM::trust : updated trust radius is        0.330000000000000     
   GDM:         diagonal hessian shift is      0.000000000000000E+000
   GDM::PreWSS: input subspace size is                 14
   GDM::PreWSS: working subspace size set to           14
   GDM::PrEWSS: # of linearly dependent vectors =            0
   GDM::PrEWSS: Max dev from orthonormality =   8.589934319402914E-013
   GDM::BFGS:   lowest Hinv e-value    0.169037066117965     
   GDM::BFGS:   highest Hinv e-value    5.16224259007607     
   GDM::      : max scaling in EWCs is          2.82842712474619     
   GDM::      : max rotation in step is        0.374796352087981     
   GDM::        grad.step =  -0.337451113244829     
   ------- Leaving GDM -- hopefully with a step in the right direction! --------
 
   14    -716.2977677142      4.11E-01  Gap = 0.00 eV  Descent step
 
   ------------------- Entering Geometric Direct Minimization ------------------
   GDM::trust : actual energy change is       -0.163969115713371     
   GDM::trust : predicted energy change was   -0.348791473858253     
   GDM::trust : updated trust radius is        0.330000000000000     
   GDM:         diagonal hessian shift is      0.000000000000000E+000
   GDM::PreWSS: input subspace size is                 15
   GDM::PreWSS: working subspace size set to           15
   GDM::PrEWSS: # of linearly dependent vectors =            0
   GDM::PrEWSS: Max dev from orthonormality =   1.438925367747146E-012
   GDM::BFGS:   lowest Hinv e-value    0.137271049726702     
   GDM::BFGS:   highest Hinv e-value    4.96257540561320     
   GDM::      : max scaling in EWCs is          2.82842712474619     
   GDM::      : max rotation in step is       -0.333289658482289     
   GDM::        grad.step =  -0.291812860437079     
   ------- Leaving GDM -- hopefully with a step in the right direction! --------
 
   15    -716.4617368299      3.28E-01  Gap = 0.00 eV  Descent step
 
   ------------------- Entering Geometric Direct Minimization ------------------
   GDM::trust : actual energy change is       -8.914938135285411E-002
   GDM::trust : predicted energy change was   -0.363701066051746     
   GDM::trust : updated trust radius is        0.330000000000000     
   GDM:         diagonal hessian shift is      0.000000000000000E+000
   GDM::PreWSS: input subspace size is                 16
   GDM::PreWSS: working subspace size set to           16
   GDM::PrEWSS: # of linearly dependent vectors =            0
   GDM::PrEWSS: Max dev from orthonormality =   1.121189946440282E-012
   GDM::BFGS:   lowest Hinv e-value    0.150692428588647     
   GDM::BFGS:   highest Hinv e-value    5.11088001328427     
   GDM::      : max scaling in EWCs is          2.82842712474619     
   GDM::      : max rotation in step is       -0.188310438116940     
   GDM::        grad.step =  -0.324465741531527     
   ------- Leaving GDM -- hopefully with a step in the right direction! --------
 
   16    -716.5508862113      4.25E-01  Gap = 0.00 eV  Descent step
 
   ------------------- Entering Geometric Direct Minimization ------------------
   GDM::trust : actual energy change is       -5.744838743999026E-002
   GDM::trust : predicted energy change was   -0.389779323823594     
   GDM::trust : updated trust radius is        0.330000000000000     
   GDM:         diagonal hessian shift is      0.000000000000000E+000
   GDM::PreWSS: input subspace size is                 17
   GDM::PreWSS: working subspace size set to           17
   GDM::PrEWSS: # of linearly dependent vectors =            0
   GDM::PrEWSS: Max dev from orthonormality =   1.244351843787683E-012
   GDM::BFGS:   lowest Hinv e-value    0.109664137516875     
   GDM::BFGS:   highest Hinv e-value    4.85874040775283     
   GDM::      : max scaling in EWCs is          2.82842712474619     
   GDM::      : max rotation in step is        0.356557250909276     
   GDM::        grad.step =  -0.346995242783390     
   ------- Leaving GDM -- hopefully with a step in the right direction! --------
 
   17    -716.6083345987      4.84E-01  Gap = 0.00 eV  Descent step
 
   ------------------- Entering Geometric Direct Minimization ------------------
   GDM::trust : actual energy change is        5.238872041888953E-002
   GDM::trust : predicted energy change was   -0.488043548566399     
   GDM::trust : updated trust radius is        0.108900000000000     
   GDM::search:  On step            1 .  The current bracket is:
       left   : x =  0.0000E+00, e =      -716.6083345987, g = -0.5777E+00
       current: x =  0.6006E+00, e =      -716.5559458783, g =  0.7180E+00
       right  : x =  0.1000E+04, e =      1000.0000000000, g =  0.1000E+04
       next   : x =  0.2609E+00
   GDM::      : max rotation in step is        0.154893136987049     
   ------- Leaving GDM -- hopefully with a step in the right direction! --------
 
   18    -716.5559458783      1.12E+00  Gap = 0.00 eV  Line search: overstep
 
   ------------------- Entering Geometric Direct Minimization ------------------
   GDM::trust : actual energy change is       -0.172404770018375     
   GDM::trust : predicted energy change was   -0.488043548566399     
   GDM::trust : updated trust radius is        0.108900000000000     
   GDM:         diagonal hessian shift is      0.000000000000000E+000
   GDM::PreWSS: input subspace size is                 18
   GDM::PreWSS: working subspace size set to           18
   GDM::PrEWSS: # of linearly dependent vectors =            0
   GDM::PrEWSS: Max dev from orthonormality =   1.939129412598106E-012
   GDM::BFGS:   lowest Hinv e-value    0.176774077068074     
   GDM::BFGS:   highest Hinv e-value    5.09857039034873     
   GDM::      : max scaling in EWCs is          2.82842712474619     
   GDM::      : max rotation in step is        0.170378744545357     
   GDM::        grad.step =  -5.042661941575924E-002
   ------- Leaving GDM -- hopefully with a step in the right direction! --------
 
   19    -716.7807393687      2.56E-01  Gap = 0.00 eV  Descent step
 
   ------------------- Entering Geometric Direct Minimization ------------------
   GDM::trust : actual energy change is       -8.782141707683877E-002
   GDM::trust : predicted energy change was   -1.867056321196351E-002
   GDM::trust : updated trust radius is        0.330000000000000     
   GDM:         diagonal hessian shift is      0.000000000000000E+000
   GDM::PreWSS: input subspace size is                 19
   GDM::PreWSS: working subspace size set to           18
   GDM::PrEWSS: # of linearly dependent vectors =            0
   GDM::PrEWSS: Max dev from orthonormality =   2.156191891700132E-013
   GDM::BFGS:   lowest Hinv e-value    0.169938836861542     
   GDM::BFGS:   highest Hinv e-value    5.19184402225276     
   GDM::      : max scaling in EWCs is          2.82842712474619     
   GDM::      : max rotation in step is        0.607309238344148     
   GDM::        grad.step =  -0.118963335694690     
   ------- Leaving GDM -- hopefully with a step in the right direction! --------
 
   20    -716.8685607858      2.35E-01  Gap = 0.00 eV  Descent step
 
   ------------------- Entering Geometric Direct Minimization ------------------
   GDM::trust : actual energy change is       -0.127728836357960     
   GDM::trust : predicted energy change was   -0.135066192373000     
   GDM::trust : updated trust radius is        0.330000000000000     
   GDM:         diagonal hessian shift is      0.000000000000000E+000
   GDM::PreWSS: input subspace size is                 19
   GDM::PreWSS: working subspace size set to           18
   GDM::PrEWSS: # of linearly dependent vectors =            0
   GDM::PrEWSS: Max dev from orthonormality =   2.248791430847774E-013
   GDM::BFGS:   lowest Hinv e-value    0.161892400746194     
   GDM::BFGS:   highest Hinv e-value    4.97179013025794     
   GDM::      : max scaling in EWCs is          2.82842712474619     
   GDM::      : max rotation in step is        0.260690282442295     
   GDM::        grad.step =  -3.029549334061832E-002
   ------- Leaving GDM -- hopefully with a step in the right direction! --------
 
   21    -716.9962896222      1.18E-01  Gap = 0.00 eV  Normal BFGS step
 
   ------------------- Entering Geometric Direct Minimization ------------------
   GDM::trust : actual energy change is        1.657858534315437E-002
   GDM::trust : predicted energy change was   -4.544324001092746E-002
   GDM::trust : updated trust radius is        0.108900000000000     
   GDM::search:  On step            1 .  The current bracket is:
       left   : x =  0.0000E+00, e =      -716.9962896222, g = -0.9102E-01
       current: x =  0.3328E+00, e =      -716.9797110368, g =  0.1117E+00
       right  : x =  0.1000E+04, e =      1000.0000000000, g =  0.1000E+04
       next   : x =  0.1076E+00
   GDM::      : max rotation in step is        8.424422343290301E-002
   ------- Leaving GDM -- hopefully with a step in the right direction! --------
 
   22    -716.9797110368      3.39E-01  Gap = 0.00 eV  Line search: overstep
 
   ------------------- Entering Geometric Direct Minimization ------------------
   GDM::trust : actual energy change is       -1.029173790027471E-002
   GDM::trust : predicted energy change was   -4.544324001092746E-002
   GDM::trust : updated trust radius is        0.108900000000000     
   GDM:         diagonal hessian shift is      0.000000000000000E+000
   GDM::PreWSS: input subspace size is                 19
   GDM::PreWSS: working subspace size set to           18
   GDM::PrEWSS: # of linearly dependent vectors =            0
   GDM::PrEWSS: Max dev from orthonormality =   2.295767742577226E-013
   GDM::BFGS:   lowest Hinv e-value    0.129594863590847     
   GDM::BFGS:   highest Hinv e-value    4.91381433335665     
   GDM::      : max scaling in EWCs is          2.82842712474619     
   GDM::      : max rotation in step is       -4.974197279809816E-002
   GDM::        grad.step =  -1.335046428753846E-002
   ------- Leaving GDM -- hopefully with a step in the right direction! --------
 
   23    -717.0065813601      3.70E-02  Gap = 0.00 eV  Descent step
 
   ------------------- Entering Geometric Direct Minimization ------------------
   GDM::trust : actual energy change is        1.153778401396721E-002
   GDM::trust : predicted energy change was   -2.257163965125594E-002
   GDM::trust : updated trust radius is        0.108900000000000     
   GDM::search:  On step            1 .  The current bracket is:
       left   : x =  0.0000E+00, e =      -717.0065813601, g = -0.8943E-01
       current: x =  0.1493E+00, e =      -716.9950435761, g =  0.1745E+00
       right  : x =  0.1000E+04, e =      1000.0000000000, g =  0.1000E+04
       next   : x =  0.4004E-01
   GDM::      : max rotation in step is       -1.334120472015188E-002
   ------- Leaving GDM -- hopefully with a step in the right direction! --------
 
   24    -716.9950435761      6.46E-02  Gap = 0.00 eV  Line search: overstep
 
   ------------------- Entering Geometric Direct Minimization ------------------
   GDM::trust : actual energy change is       -4.536222069532414E-003
   GDM::trust : predicted energy change was   -2.257163965125594E-002
   GDM::trust : updated trust radius is        0.108900000000000     
   GDM:         diagonal hessian shift is      0.000000000000000E+000
   GDM::PreWSS: input subspace size is                 19
   GDM::PreWSS: working subspace size set to           18
   GDM::PrEWSS: # of linearly dependent vectors =            0
   GDM::PrEWSS: Max dev from orthonormality =   3.617661725741073E-013
   GDM::BFGS:   lowest Hinv e-value    0.130779471341773     
   GDM::BFGS:   highest Hinv e-value    4.99449282322787     
   GDM::      : max scaling in EWCs is          2.82842712474619     
   GDM::      : max rotation in step is        9.733540856651575E-002
   GDM::        grad.step =  -3.786309580035083E-003
   ------- Leaving GDM -- hopefully with a step in the right direction! --------
 
   25    -717.0111175821      3.19E-02  Gap = 0.00 eV  Normal BFGS step
 
   ------------------- Entering Geometric Direct Minimization ------------------
   GDM::trust : actual energy change is       -2.936748145543788E-003
   GDM::trust : predicted energy change was   -5.679464370052624E-003
   GDM::trust : updated trust radius is        0.330000000000000     
   GDM:         diagonal hessian shift is      0.000000000000000E+000
   GDM::PreWSS: input subspace size is                 19
   GDM::PreWSS: working subspace size set to           18
   GDM::PrEWSS: # of linearly dependent vectors =            0
   GDM::PrEWSS: Max dev from orthonormality =   3.423294633875251E-013
   GDM::BFGS:   lowest Hinv e-value    0.127022622467256     
   GDM::BFGS:   highest Hinv e-value    4.87959098790479     
   GDM::      : max scaling in EWCs is          2.82842712474619     
   GDM::      : max rotation in step is        6.869100363368232E-002
   GDM::        grad.step =  -2.466057987204167E-003
   ------- Leaving GDM -- hopefully with a step in the right direction! --------
 
   26    -717.0140543303      2.03E-02  Gap = 0.00 eV  Normal BFGS step
 
   ------------------- Entering Geometric Direct Minimization ------------------
   GDM::trust : actual energy change is        8.656834231715038E-004
   GDM::trust : predicted energy change was   -3.699086980806250E-003
   GDM::trust : updated trust radius is        0.108900000000000     
   GDM::search:  On step            1 .  The current bracket is:
       left   : x =  0.0000E+00, e =      -717.0140543303, g = -0.2157E-01
       current: x =  0.1143E+00, e =      -717.0131886469, g =  0.2967E-01
       right  : x =  0.1000E+04, e =      1000.0000000000, g =  0.1000E+04
       next   : x =  0.4232E-01
   GDM::      : max rotation in step is        2.542154046415212E-002
   ------- Leaving GDM -- hopefully with a step in the right direction! --------
 
   27    -717.0131886469      9.23E-03  Gap = 0.00 eV  Line search: overstep
 
   ------------------- Entering Geometric Direct Minimization ------------------
   GDM::trust : actual energy change is       -1.040321574805603E-003
   GDM::trust : predicted energy change was   -3.699086980806250E-003
   GDM::trust : updated trust radius is        0.108900000000000     
   GDM:         diagonal hessian shift is      0.000000000000000E+000
   GDM::PreWSS: input subspace size is                 19
   GDM::PreWSS: working subspace size set to           18
   GDM::PrEWSS: # of linearly dependent vectors =            0
   GDM::PrEWSS: Max dev from orthonormality =   2.121879061345311E-013
   GDM::BFGS:   lowest Hinv e-value    0.126780274474781     
   GDM::BFGS:   highest Hinv e-value    3.83282237382584     
   GDM::      : max scaling in EWCs is          2.82842712474619     
   GDM::      : max rotation in step is        6.186294701329247E-002
   GDM::        grad.step =  -1.010661313040581E-003
   ------- Leaving GDM -- hopefully with a step in the right direction! --------
 
   28    -717.0150946519      1.69E-02  Gap = 82.44 eV  Normal BFGS step
 
   ------------------- Entering Geometric Direct Minimization ------------------
   GDM::trust : actual energy change is       -1.170503358480346E-003
   GDM::trust : predicted energy change was   -1.515991969560871E-003
   GDM::trust : updated trust radius is        0.330000000000000     
   GDM:         diagonal hessian shift is      0.000000000000000E+000
   GDM::PreWSS: input subspace size is                 19
   GDM::PreWSS: working subspace size set to           18
   GDM::PrEWSS: # of linearly dependent vectors =            0
   GDM::PrEWSS: Max dev from orthonormality =   4.840849943121839E-013
   GDM::BFGS:   lowest Hinv e-value    0.122402776570869     
   GDM::BFGS:   highest Hinv e-value    3.90226067499094     
   GDM::      : max scaling in EWCs is          2.82842712474619     
   GDM::      : max rotation in step is        0.120408828096843     
   GDM::        grad.step =  -1.136579625252328E-003
   ------- Leaving GDM -- hopefully with a step in the right direction! --------
 
   29    -717.0162651552      1.91E-02  Gap = 82.44 eV  Normal BFGS step
 
   ------------------- Entering Geometric Direct Minimization ------------------
   GDM::trust : actual energy change is       -1.502060207030809E-003
   GDM::trust : predicted energy change was   -1.704869437878491E-003
   GDM::trust : updated trust radius is        0.330000000000000     
   GDM:         diagonal hessian shift is      0.000000000000000E+000
   GDM::PreWSS: input subspace size is                 19
   GDM::PreWSS: working subspace size set to           18
   GDM::PrEWSS: # of linearly dependent vectors =            0
   GDM::PrEWSS: Max dev from orthonormality =   1.936888149867144E-013
   GDM::BFGS:   lowest Hinv e-value    9.730946986439273E-002
   GDM::BFGS:   highest Hinv e-value    6.31505562929852     
   GDM::      : max scaling in EWCs is          2.82842712474619     
   GDM::      : max rotation in step is        0.164245870743273     
   GDM::        grad.step =  -1.599387434838105E-003
   ------- Leaving GDM -- hopefully with a step in the right direction! --------
 
   30    -717.0177672154      3.94E-02  Gap = 82.44 eV  Normal BFGS step
 
   ------------------- Entering Geometric Direct Minimization ------------------
   GDM::trust : actual energy change is       -2.601795985128774E-004
   GDM::trust : predicted energy change was   -2.399081152257157E-003
   GDM::trust : updated trust radius is        0.330000000000000     
   GDM:         diagonal hessian shift is      0.000000000000000E+000
   GDM::PreWSS: input subspace size is                 19
   GDM::PreWSS: working subspace size set to           18
   GDM::PrEWSS: # of linearly dependent vectors =            0
   GDM::PrEWSS: Max dev from orthonormality =   3.165506051727718E-013
   GDM::BFGS:   lowest Hinv e-value    0.101905701425357     
   GDM::BFGS:   highest Hinv e-value    3.41722240699557     
   GDM::      : max scaling in EWCs is          2.82842712474619     
   GDM::      : max rotation in step is       -4.558439904833528E-002
   GDM::        grad.step =  -3.474842732780432E-003
   ------- Leaving GDM -- hopefully with a step in the right direction! --------
 
   31    -717.0180273950      9.37E-02  Gap = 82.44 eV  Normal BFGS step
 
   ------------------- Entering Geometric Direct Minimization ------------------
   GDM::trust : actual energy change is       -1.896303623766471E-003
   GDM::trust : predicted energy change was   -5.212264099170649E-003
   GDM::trust : updated trust radius is        0.330000000000000     
   GDM:         diagonal hessian shift is      0.000000000000000E+000
   GDM::PreWSS: input subspace size is                 19
   GDM::PreWSS: working subspace size set to           18
   GDM::PrEWSS: # of linearly dependent vectors =            0
   GDM::PrEWSS: Max dev from orthonormality =   3.269814974338203E-013
   GDM::BFGS:   lowest Hinv e-value    0.124779637652441     
   GDM::BFGS:   highest Hinv e-value    3.03930504535160     
   GDM::      : max scaling in EWCs is          2.82842712474619     
   GDM::      : max rotation in step is        6.594804114238664E-002
   GDM::        grad.step =  -2.236212572944255E-003
   ------- Leaving GDM -- hopefully with a step in the right direction! --------
 
   32    -717.0199236987      3.86E-02  Gap = 82.44 eV  Normal BFGS step
 
   ------------------- Entering Geometric Direct Minimization ------------------
   GDM::trust : actual energy change is       -2.406331233487435E-003
   GDM::trust : predicted energy change was   -3.354318859416383E-003
   GDM::trust : updated trust radius is        0.330000000000000     
   GDM:         diagonal hessian shift is      0.000000000000000E+000
   GDM::PreWSS: input subspace size is                 19
   GDM::PreWSS: working subspace size set to           18
   GDM::PrEWSS: # of linearly dependent vectors =            0
   GDM::PrEWSS: Max dev from orthonormality =   3.725734998294428E-013
   GDM::BFGS:   lowest Hinv e-value    0.114459940327943     
   GDM::BFGS:   highest Hinv e-value    2.99020975688993     
   GDM::      : max scaling in EWCs is          2.82842712474619     
   GDM::      : max rotation in step is        0.137363519160329     
   GDM::        grad.step =  -1.970551964309756E-003
   ------- Leaving GDM -- hopefully with a step in the right direction! --------
 
   33    -717.0223300299      2.74E-02  Gap = 82.44 eV  Normal BFGS step
 
   ------------------- Entering Geometric Direct Minimization ------------------
   GDM::trust : actual energy change is       -1.845609674205662E-003
   GDM::trust : predicted energy change was   -2.955827946464633E-003
   GDM::trust : updated trust radius is        0.330000000000000     
   GDM:         diagonal hessian shift is      0.000000000000000E+000
   GDM::PreWSS: input subspace size is                 19
   GDM::PreWSS: working subspace size set to           18
   GDM::PrEWSS: # of linearly dependent vectors =            0
   GDM::PrEWSS: Max dev from orthonormality =   8.286635266863129E-013
   GDM::BFGS:   lowest Hinv e-value    0.105177690304709     
   GDM::BFGS:   highest Hinv e-value    3.13566297049400     
   GDM::      : max scaling in EWCs is          2.82842712474619     
   GDM::      : max rotation in step is        1.534295434356227E-002
   GDM::        grad.step =  -1.444130186128394E-003
   ------- Leaving GDM -- hopefully with a step in the right direction! --------
 
   34    -717.0241756396      7.36E-02  Gap = 82.44 eV  Normal BFGS step
 
   ------------------- Entering Geometric Direct Minimization ------------------
   GDM::trust : actual energy change is       -2.108846214241566E-003
   GDM::trust : predicted energy change was   -2.166195279192590E-003
   GDM::trust : updated trust radius is        0.330000000000000     
   GDM:         diagonal hessian shift is      0.000000000000000E+000
   GDM::PreWSS: input subspace size is                 19
   GDM::PreWSS: working subspace size set to           18
   GDM::PrEWSS: # of linearly dependent vectors =            0
   GDM::PrEWSS: Max dev from orthonormality =   1.325030363208413E-012
   GDM::BFGS:   lowest Hinv e-value    0.156488879686444     
   GDM::BFGS:   highest Hinv e-value    3.34222917489050     
   GDM::      : max scaling in EWCs is          2.82842712474619     
   GDM::      : max rotation in step is        0.175821736129851     
   GDM::        grad.step =  -2.806838105956232E-003
   ------- Leaving GDM -- hopefully with a step in the right direction! --------
 
   35    -717.0262844858      3.81E-02  Gap = 82.44 eV  Normal BFGS step
 
   ------------------- Entering Geometric Direct Minimization ------------------
   GDM::trust : actual energy change is       -2.613980018622897E-003
   GDM::trust : predicted energy change was   -4.210257158934349E-003
   GDM::trust : updated trust radius is        0.330000000000000     
   GDM:         diagonal hessian shift is      0.000000000000000E+000
   GDM::PreWSS: input subspace size is                 19
   GDM::PreWSS: working subspace size set to           18
   GDM::PrEWSS: # of linearly dependent vectors =            0
   GDM::PrEWSS: Max dev from orthonormality =   2.990814193526425E-012
   GDM::BFGS:   lowest Hinv e-value    0.153827062833480     
   GDM::BFGS:   highest Hinv e-value    2.35601569941327     
   GDM::      : max scaling in EWCs is          2.82842712474619     
   GDM::      : max rotation in step is        3.867555529909664E-002
   GDM::        grad.step =  -1.688387211809458E-003
   ------- Leaving GDM -- hopefully with a step in the right direction! --------
 
   36    -717.0288984658      6.92E-02  Gap = 82.44 eV  Normal BFGS step
 
   ------------------- Entering Geometric Direct Minimization ------------------
   GDM::trust : actual energy change is       -1.843782157038731E-003
   GDM::trust : predicted energy change was   -2.532580817714188E-003
   GDM::trust : updated trust radius is        0.330000000000000     
   GDM:         diagonal hessian shift is      0.000000000000000E+000
   GDM::PreWSS: input subspace size is                 19
   GDM::PreWSS: working subspace size set to           18
   GDM::PrEWSS: # of linearly dependent vectors =            0
   GDM::PrEWSS: Max dev from orthonormality =   9.257941635532063E-013
   GDM::BFGS:   lowest Hinv e-value    0.141745777938737     
   GDM::BFGS:   highest Hinv e-value    2.75235445953630     
   GDM::      : max scaling in EWCs is          2.82842712474619     
   GDM::      : max rotation in step is        8.699645817812385E-002
   GDM::        grad.step =  -1.079742619781914E-003
   ------- Leaving GDM -- hopefully with a step in the right direction! --------
 
   37    -717.0307422480      1.78E-02  Gap = 82.44 eV  Normal BFGS step
 
   ------------------- Entering Geometric Direct Minimization ------------------
   GDM::trust : actual energy change is       -1.359032585241948E-003
   GDM::trust : predicted energy change was   -1.619613929672871E-003
   GDM::trust : updated trust radius is        0.330000000000000     
   GDM:         diagonal hessian shift is      0.000000000000000E+000
   GDM::PreWSS: input subspace size is                 19
   GDM::PreWSS: working subspace size set to           18
   GDM::PrEWSS: # of linearly dependent vectors =            0
   GDM::PrEWSS: Max dev from orthonormality =   3.748376609102877E-012
   GDM::BFGS:   lowest Hinv e-value    0.117867837077284     
   GDM::BFGS:   highest Hinv e-value    3.61321459865974     
   GDM::      : max scaling in EWCs is          2.82842712474619     
   GDM::      : max rotation in step is        8.703230338864154E-002
   GDM::        grad.step =  -8.080151003040753E-004
   ------- Leaving GDM -- hopefully with a step in the right direction! --------
 
   38    -717.0321012805      4.01E-02  Gap = 82.44 eV  Normal BFGS step
 
   ------------------- Entering Geometric Direct Minimization ------------------
   GDM::trust : actual energy change is       -9.854498166532721E-004
   GDM::trust : predicted energy change was   -1.212022650456113E-003
   GDM::trust : updated trust radius is        0.330000000000000     
   GDM:         diagonal hessian shift is      0.000000000000000E+000
   GDM::PreWSS: input subspace size is                 19
   GDM::PreWSS: working subspace size set to           18
   GDM::PrEWSS: # of linearly dependent vectors =            0
   GDM::PrEWSS: Max dev from orthonormality =   5.682294912379149E-012
   GDM::BFGS:   lowest Hinv e-value    0.132084477503537     
   GDM::BFGS:   highest Hinv e-value    3.24357257865537     
   GDM::      : max scaling in EWCs is          2.82842712474619     
   GDM::      : max rotation in step is        6.187156646219616E-002
   GDM::        grad.step =  -8.215918587499950E-004
   ------- Leaving GDM -- hopefully with a step in the right direction! --------
 
   39    -717.0330867304      3.37E-02  Gap = 82.44 eV  Normal BFGS step
 
   ------------------- Entering Geometric Direct Minimization ------------------
   GDM::trust : actual energy change is       -9.957963743545406E-004
   GDM::trust : predicted energy change was   -1.232387788124992E-003
   GDM::trust : updated trust radius is        0.330000000000000     
   GDM:         diagonal hessian shift is      0.000000000000000E+000
   GDM::PreWSS: input subspace size is                 19
   GDM::PreWSS: working subspace size set to           18
   GDM::PrEWSS: # of linearly dependent vectors =            0
   GDM::PrEWSS: Max dev from orthonormality =   1.456833438606697E-011
   GDM::BFGS:   lowest Hinv e-value    0.163650541007260     
   GDM::BFGS:   highest Hinv e-value    5.62729383782531     
   GDM::      : max scaling in EWCs is          2.82842712474619     
   GDM::      : max rotation in step is        0.127117874003687     
   GDM::        grad.step =  -8.734573880787566E-004
   ------- Leaving GDM -- hopefully with a step in the right direction! --------
 
   40    -717.0340825267      1.25E-02  Gap = 82.44 eV  Normal BFGS step
 
   ------------------- Entering Geometric Direct Minimization ------------------
   GDM::trust : actual energy change is        8.990804401491914E-004
   GDM::trust : predicted energy change was   -1.310186082118135E-003
   GDM::trust : updated trust radius is        0.108900000000000     
   GDM::search:  On step            1 .  The current bracket is:
       left   : x =  0.0000E+00, e =      -717.0340825267, g = -0.5372E-02
       current: x =  0.1626E+00, e =      -717.0331834463, g =  0.1482E-01
       right  : x =  0.1000E+04, e =      1000.0000000000, g =  0.1000E+04
       next   : x =  0.4006E-01
   GDM::      : max rotation in step is        3.132007803646891E-002
   ------- Leaving GDM -- hopefully with a step in the right direction! --------
 
   41    -717.0331834463      6.98E-03  Gap = 0.00 eV  Line search: overstep
 
   ------------------- Entering Geometric Direct Minimization ------------------
   GDM::trust : actual energy change is       -3.180308589207925E-004
   GDM::trust : predicted energy change was   -1.310186082118135E-003
   GDM::trust : updated trust radius is        0.108900000000000     
   GDM:         diagonal hessian shift is      0.000000000000000E+000
   GDM::PreWSS: input subspace size is                 19
   GDM::PreWSS: working subspace size set to           18
   GDM::PrEWSS: # of linearly dependent vectors =            0
   GDM::PrEWSS: Max dev from orthonormality =   2.035364932151396E-011
   GDM::BFGS:   lowest Hinv e-value    0.140571320890672     
   GDM::BFGS:   highest Hinv e-value    3.74786066969580     
   GDM::      : max scaling in EWCs is          2.82842712474619     
   GDM::      : max rotation in step is        6.479270452824099E-002
   GDM::        grad.step =  -4.048070237116402E-004
   ------- Leaving GDM -- hopefully with a step in the right direction! --------
 
   42    -717.0344005576      1.47E-02  Gap = 0.00 eV  Normal BFGS step
 
   ------------------- Entering Geometric Direct Minimization ------------------
   GDM::trust : actual energy change is       -4.294178447707964E-004
   GDM::trust : predicted energy change was   -6.072105355674599E-004
   GDM::trust : updated trust radius is        0.330000000000000     
   GDM:         diagonal hessian shift is      0.000000000000000E+000
   GDM::PreWSS: input subspace size is                 19
   GDM::PreWSS: working subspace size set to           18
   GDM::PrEWSS: # of linearly dependent vectors =            0
   GDM::PrEWSS: Max dev from orthonormality =   1.570507612846939E-011
   GDM::BFGS:   lowest Hinv e-value    0.162003923712609     
   GDM::BFGS:   highest Hinv e-value    4.23328087468795     
   GDM::      : max scaling in EWCs is          2.82842712474619     
   GDM::      : max rotation in step is        2.603629477807940E-002
   GDM::        grad.step =  -1.429003710906680E-004
   ------- Leaving GDM -- hopefully with a step in the right direction! --------
 
   43    -717.0348299754      8.24E-03  Gap = 0.00 eV  Normal BFGS step
 
   ------------------- Entering Geometric Direct Minimization ------------------
   GDM::trust : actual energy change is       -1.074877546898279E-004
   GDM::trust : predicted energy change was   -2.143505566360019E-004
   GDM::trust : updated trust radius is        0.330000000000000     
   GDM:         diagonal hessian shift is      0.000000000000000E+000
   GDM::PreWSS: input subspace size is                 19
   GDM::PreWSS: working subspace size set to           18
   GDM::PrEWSS: # of linearly dependent vectors =            0
   GDM::PrEWSS: Max dev from orthonormality =   5.812385295289602E-011
   GDM::BFGS:   lowest Hinv e-value    0.226569603246516     
   GDM::BFGS:   highest Hinv e-value    4.67187591965638     
   GDM::      : max scaling in EWCs is          2.82842712474619     
   GDM::      : max rotation in step is        1.458522727049934E-002
   GDM::        grad.step =  -1.068807999155931E-004
   ------- Leaving GDM -- hopefully with a step in the right direction! --------
 
   44    -717.0349374632      8.03E-03  Gap = 0.00 eV  Normal BFGS step
 
   ------------------- Entering Geometric Direct Minimization ------------------
   GDM::trust : actual energy change is       -8.672336855397589E-005
   GDM::trust : predicted energy change was   -1.603211998733896E-004
   GDM::trust : updated trust radius is        0.330000000000000     
   GDM:         diagonal hessian shift is      0.000000000000000E+000
   GDM::PreWSS: input subspace size is                 19
   GDM::PreWSS: working subspace size set to           18
   GDM::PrEWSS: # of linearly dependent vectors =            0
   GDM::PrEWSS: Max dev from orthonormality =   1.244585684512245E-011
   GDM::BFGS:   lowest Hinv e-value    0.205591334408732     
   GDM::BFGS:   highest Hinv e-value    4.88265366968392     
   GDM::      : max scaling in EWCs is          2.82842712474619     
   GDM::      : max rotation in step is        8.698617461290439E-003
   GDM::        grad.step =  -2.972245712192389E-005
   ------- Leaving GDM -- hopefully with a step in the right direction! --------
 
   45    -717.0350241866      2.08E-03  Gap = 0.00 eV  Normal BFGS step
 
   ------------------- Entering Geometric Direct Minimization ------------------
   GDM::trust : actual energy change is       -2.353628701712296E-005
   GDM::trust : predicted energy change was   -4.458368568288583E-005
   GDM::trust : updated trust radius is        0.330000000000000     
   GDM:         diagonal hessian shift is      0.000000000000000E+000
   GDM::PreWSS: input subspace size is                 19
   GDM::PreWSS: working subspace size set to           18
   GDM::PrEWSS: # of linearly dependent vectors =            0
   GDM::PrEWSS: Max dev from orthonormality =   2.781138166985109E-011
   GDM::BFGS:   lowest Hinv e-value    0.201971715090953     
   GDM::BFGS:   highest Hinv e-value    5.36492833666911     
   GDM::      : max scaling in EWCs is          2.82842712474619     
   GDM::      : max rotation in step is        7.551751861315844E-003
   GDM::        grad.step =  -8.159987095535712E-006
   ------- Leaving GDM -- hopefully with a step in the right direction! --------
 
   46    -717.0350477228      7.50E-04  Gap = 0.00 eV  Normal BFGS step
 
   ------------------- Entering Geometric Direct Minimization ------------------
   GDM::trust : actual energy change is       -2.171221012758906E-006
   GDM::trust : predicted energy change was   -1.223998064330357E-005
   GDM::trust : updated trust radius is        0.330000000000000     
   GDM:         diagonal hessian shift is      0.000000000000000E+000
   GDM::PreWSS: input subspace size is                 19
   GDM::PreWSS: working subspace size set to           18
   GDM::PrEWSS: # of linearly dependent vectors =            0
   GDM::PrEWSS: Max dev from orthonormality =   1.036020921829639E-011
   GDM::BFGS:   lowest Hinv e-value    0.168732499714534     
   GDM::BFGS:   highest Hinv e-value    3.77784286729994     
   GDM::      : max scaling in EWCs is          2.82842712474619     
   GDM::      : max rotation in step is       -5.290877325948821E-003
   GDM::        grad.step =  -7.991634419411496E-006
   ------- Leaving GDM -- hopefully with a step in the right direction! --------
 
   47    -717.0350498941      3.76E-03  Gap = 0.00 eV  Normal BFGS step
 
   ------------------- Entering Geometric Direct Minimization ------------------
   GDM::trust : actual energy change is       -1.539884124213131E-006
   GDM::trust : predicted energy change was   -1.198745162911724E-005
   GDM::trust : updated trust radius is        0.330000000000000     
   GDM:         diagonal hessian shift is      0.000000000000000E+000
   GDM::PreWSS: input subspace size is                 19
   GDM::PreWSS: working subspace size set to           18
   GDM::PrEWSS: # of linearly dependent vectors =            0
   GDM::PrEWSS: Max dev from orthonormality =   7.426004255961516E-012
   GDM::BFGS:   lowest Hinv e-value    0.170799461851062     
   GDM::BFGS:   highest Hinv e-value    3.64468760566569     
   GDM::      : max scaling in EWCs is          2.82842712474619     
   GDM::      : max rotation in step is        1.382952568346175E-003
   GDM::        grad.step =  -4.460480513527074E-006
   ------- Leaving GDM -- hopefully with a step in the right direction! --------
 
   48    -717.0350514339      1.22E-03  Gap = 0.00 eV  Normal BFGS step
 
   ------------------- Entering Geometric Direct Minimization ------------------
   GDM::trust : actual energy change is       -3.872755314660026E-006
   GDM::trust : predicted energy change was   -6.690720770290613E-006
   GDM::trust : updated trust radius is        0.330000000000000     
   GDM:         diagonal hessian shift is      0.000000000000000E+000
   GDM::PreWSS: input subspace size is                 19
   GDM::PreWSS: working subspace size set to           18
   GDM::PrEWSS: # of linearly dependent vectors =            0
   GDM::PrEWSS: Max dev from orthonormality =   1.280654748914145E-011
   GDM::BFGS:   lowest Hinv e-value    0.179426520850882     
   GDM::BFGS:   highest Hinv e-value    3.82319894240779     
   GDM::      : max scaling in EWCs is          2.82842712474619     
   GDM::      : max rotation in step is        1.066695716642405E-003
   GDM::        grad.step =  -3.570634723753461E-007
   ------- Leaving GDM -- hopefully with a step in the right direction! --------
 
   49    -717.0350553067      3.44E-04  Gap = 0.00 eV  Normal BFGS step
 
   ------------------- Entering Geometric Direct Minimization ------------------
   GDM::trust : actual energy change is       -1.181525703941588E-007
   GDM::trust : predicted energy change was   -5.355952085630192E-007
   GDM::trust : updated trust radius is        0.330000000000000     
   GDM:         diagonal hessian shift is      0.000000000000000E+000
   GDM::PreWSS: input subspace size is                 19
   GDM::PreWSS: working subspace size set to           18
   GDM::PrEWSS: # of linearly dependent vectors =            0
   GDM::PrEWSS: Max dev from orthonormality =   1.941045241204975E-011
   GDM::BFGS:   lowest Hinv e-value    0.167035087121192     
   GDM::BFGS:   highest Hinv e-value    4.14713520738890     
   GDM::      : max scaling in EWCs is          2.82842712474619     
   GDM::      : max rotation in step is        3.161163723174676E-004
   GDM::        grad.step =  -2.302940847923277E-007
   ------- Leaving GDM -- hopefully with a step in the right direction! --------
 
   50    -717.0350554249      2.57E-04  Gap = 0.00 eV  Normal BFGS step
 
   ------------------- Entering Geometric Direct Minimization ------------------
   GDM::trust : actual energy change is        9.581469839758938E-008
   GDM::trust : predicted energy change was   -3.454411271884914E-007
   GDM::trust : updated trust radius is        0.108900000000000     
   GDM::search:  On step            1 .  The current bracket is:
       left   : x =  0.0000E+00, e =      -717.0350554249, g = -0.3596E-03
       current: x =  0.6404E-03, e =      -717.0350553290, g =  0.5092E-03
       right  : x =  0.1000E+04, e =      1000.0000000000, g =  0.1000E+04
       next   : x =  0.2261E-03
   GDM::      : max rotation in step is        1.116187824483177E-004
   ------- Leaving GDM -- hopefully with a step in the right direction! --------
 
   51    -717.0350553290      2.56E-03  Gap = 0.00 eV  Line search: overstep
 
   ------------------- Entering Geometric Direct Minimization ------------------
   GDM::trust : actual energy change is       -9.325754035671707E-008
   GDM::trust : predicted energy change was   -3.454411271884914E-007
   GDM::trust : updated trust radius is        0.108900000000000     
   GDM:         diagonal hessian shift is      0.000000000000000E+000
   GDM::PreWSS: input subspace size is                 19
   GDM::PreWSS: working subspace size set to           18
   GDM::PrEWSS: # of linearly dependent vectors =            0
   GDM::PrEWSS: Max dev from orthonormality =   2.081603639458862E-011
   GDM::BFGS:   lowest Hinv e-value    0.177960165455838     
   GDM::BFGS:   highest Hinv e-value    3.91222175014015     
   GDM::      : max scaling in EWCs is          2.82842712474619     
   GDM::      : max rotation in step is       -3.811674493040468E-004
   GDM::        grad.step =  -1.086296910562109E-007
   ------- Leaving GDM -- hopefully with a step in the right direction! --------
 
   52    -717.0350555181      2.29E-04  Gap = 0.00 eV  Normal BFGS step
 
   ------------------- Entering Geometric Direct Minimization ------------------
   GDM::trust : actual energy change is        1.086732481780928E-008
   GDM::trust : predicted energy change was   -1.629445365843163E-007
   GDM::trust : updated trust radius is        0.108900000000000     
   GDM::search:  On step            1 .  The current bracket is:
       left   : x =  0.0000E+00, e =      -717.0350555181, g = -0.1841E-03
       current: x =  0.5899E-03, e =      -717.0350555072, g =  0.2025E-03
       right  : x =  0.1000E+04, e =      1000.0000000000, g =  0.1000E+04
       next   : x =  0.2681E-03
   GDM::      : max rotation in step is       -1.732516161835997E-004
   ------- Leaving GDM -- hopefully with a step in the right direction! --------
 
   53    -717.0350555072      3.56E-04  Gap = -148.91 eV  Line search: overstep
 
   ------------------- Entering Geometric Direct Minimization ------------------
   GDM::trust : actual energy change is       -5.161723493074533E-008
   GDM::trust : predicted energy change was   -1.629445365843163E-007
   GDM::trust : updated trust radius is        0.108900000000000     
   GDM:         diagonal hessian shift is      0.000000000000000E+000
   GDM::PreWSS: input subspace size is                 19
   GDM::PreWSS: working subspace size set to           18
   GDM::PrEWSS: # of linearly dependent vectors =            0
   GDM::PrEWSS: Max dev from orthonormality =   2.551317143661969E-011
   GDM::BFGS:   lowest Hinv e-value    0.177068003335126     
   GDM::BFGS:   highest Hinv e-value    3.94576954518473     
   GDM::      : max scaling in EWCs is          2.82842712474619     
   GDM::      : max rotation in step is       -1.157262916628768E-004
   GDM::        grad.step =  -8.706879864813827E-009
   ------- Leaving GDM -- hopefully with a step in the right direction! --------
 
   54    -717.0350555697      6.78E-05  Gap = -148.91 eV  Normal BFGS step
 
   ------------------- Entering Geometric Direct Minimization ------------------
   GDM::trust : actual energy change is       -2.641058927110862E-009
   GDM::trust : predicted energy change was   -1.306031979722074E-008
   GDM::trust : updated trust radius is        0.330000000000000     
   GDM:         diagonal hessian shift is      0.000000000000000E+000
   GDM::PreWSS: input subspace size is                 19
   GDM::PreWSS: working subspace size set to           18
   GDM::PrEWSS: # of linearly dependent vectors =            0
   GDM::PrEWSS: Max dev from orthonormality =   1.283240180782741E-011
   GDM::BFGS:   lowest Hinv e-value    0.163522328613644     
   GDM::BFGS:   highest Hinv e-value    3.91142956094020     
   GDM::      : max scaling in EWCs is          2.82842712474619     
   GDM::      : max rotation in step is        1.006679578125015E-004
   GDM::        grad.step =  -3.251962979214061E-009
   ------- Leaving GDM -- hopefully with a step in the right direction! --------
 
   55    -717.0350555724      3.89E-05  Gap = -148.91 eV  Normal BFGS step
 
   ------------------- Entering Geometric Direct Minimization ------------------
   GDM::trust : actual energy change is       -2.727915671130177E-009
   GDM::trust : predicted energy change was   -4.877944468821092E-009
   GDM::trust : updated trust radius is        0.330000000000000     
   GDM:         diagonal hessian shift is      0.000000000000000E+000
   GDM::PreWSS: input subspace size is                 19
   GDM::PreWSS: working subspace size set to           18
   GDM::PrEWSS: # of linearly dependent vectors =            0
   GDM::PrEWSS: Max dev from orthonormality =   1.429700802191292E-011
   GDM::BFGS:   lowest Hinv e-value    0.160254333733965     
   GDM::BFGS:   highest Hinv e-value    3.69787615897934     
   GDM::      : max scaling in EWCs is          2.82842712474619     
   GDM::      : max rotation in step is        1.406623491842883E-005
   GDM::        grad.step =  -5.151567573304240E-010
   ------- Leaving GDM -- hopefully with a step in the right direction! --------
 
   56    -717.0350555751      9.96E-06  Gap = -148.91 eV  Normal BFGS step
 
   ------------------- Entering Geometric Direct Minimization ------------------
   GDM::trust : actual energy change is       -1.841726771090180E-010
   GDM::trust : predicted energy change was   -7.727351359956360E-010
   GDM::trust : updated trust radius is        0.330000000000000     
   GDM:         diagonal hessian shift is      0.000000000000000E+000
   GDM::PreWSS: input subspace size is                 19
   GDM::PreWSS: working subspace size set to           18
   GDM::PrEWSS: # of linearly dependent vectors =            0
   GDM::PrEWSS: Max dev from orthonormality =   1.124487308823419E-011
   GDM::BFGS:   lowest Hinv e-value    0.161636124699190     
   GDM::BFGS:   highest Hinv e-value    3.99040920809979     
   GDM::      : max scaling in EWCs is          2.82842712474619     
   GDM::      : max rotation in step is        8.992865722850281E-006
   GDM::        grad.step =  -1.568506342630795E-010
   ------- Leaving GDM -- hopefully with a step in the right direction! --------
 
   57    -717.0350555753      5.16E-06  Gap = -148.91 eV  Normal BFGS step
 
   ------------------- Entering Geometric Direct Minimization ------------------
   GDM::trust : actual energy change is       -1.507487468188629E-010
   GDM::trust : predicted energy change was   -2.352759513946192E-010
   GDM::trust : updated trust radius is        0.330000000000000     
   GDM:         diagonal hessian shift is      0.000000000000000E+000
   GDM::PreWSS: input subspace size is                 19
   GDM::PreWSS: working subspace size set to           18
   GDM::PrEWSS: # of linearly dependent vectors =            0
   GDM::PrEWSS: Max dev from orthonormality =   1.867118959442138E-011
   GDM::BFGS:   lowest Hinv e-value    0.165094456764515     
   GDM::BFGS:   highest Hinv e-value    3.75312052699641     
   GDM::      : max scaling in EWCs is          2.82842712474619     
   GDM::      : max rotation in step is        1.013392305626285E-006
   GDM::        grad.step =  -2.786271023870239E-012
   ------- Leaving GDM -- hopefully with a step in the right direction! --------
 
   58    -717.0350555754      5.24E-07  Gap = -148.91 eV  Normal BFGS step
 
   ------------------- Entering Geometric Direct Minimization ------------------
   GDM::trust : actual energy change is       -3.865352482534945E-012
   GDM::trust : predicted energy change was   -4.179406535805360E-012
   GDM::trust : updated trust radius is        0.330000000000000     
   GDM:         diagonal hessian shift is      0.000000000000000E+000
   GDM::PreWSS: input subspace size is                 19
   GDM::PreWSS: working subspace size set to           18
   GDM::PrEWSS: # of linearly dependent vectors =            0
   GDM::PrEWSS: Max dev from orthonormality =   1.442736069501294E-010
   GDM::BFGS:   lowest Hinv e-value    0.162465853650291     
   GDM::BFGS:   highest Hinv e-value    3.75468522679431     
   GDM::      : max scaling in EWCs is          2.82842712474619     
   GDM::      : max rotation in step is        7.751543153052162E-007
   GDM::        grad.step =  -3.946214260120187E-013
   ------- Leaving GDM -- hopefully with a step in the right direction! --------
 
   59    -717.0350555754      2.89E-07  Gap = -148.91 eV  Normal BFGS step
 
   ------------------- Entering Geometric Direct Minimization ------------------
   GDM::trust : actual energy change is       -1.136868377216160E-013
   GDM::trust : predicted energy change was   -5.919321390180279E-013
   GDM::trust : updated trust radius is        0.330000000000000     
   GDM:         diagonal hessian shift is      0.000000000000000E+000
   GDM::PreWSS: input subspace size is                 19
   GDM::PreWSS: working subspace size set to           16
   GDM::PrEWSS: # of linearly dependent vectors =            0
   GDM::PrEWSS: Max dev from orthonormality =   1.009529265738607E-011
   GDM::BFGS:   lowest Hinv e-value    0.149022791294826     
   GDM::BFGS:   highest Hinv e-value    4.58731470582806     
   GDM::      : max scaling in EWCs is          2.82842712474619     
   GDM::      : max rotation in step is        2.103920568381035E-007
   GDM::        grad.step =  -2.967706123960853E-014
   ------- Leaving GDM -- hopefully with a step in the right direction! --------
 
   60    -717.0350555754      5.68E-08  Gap = -148.91 eV  Normal BFGS step
 
   ------------------- Entering Geometric Direct Minimization ------------------
   GDM::trust : actual energy change is       -1.364242052659392E-012
   GDM::trust : predicted energy change was   -4.451559185941278E-014
   GDM::trust : updated trust radius is        0.330000000000000     
   GDM:         diagonal hessian shift is      0.000000000000000E+000
   GDM::PreWSS: input subspace size is                 17
   GDM::PreWSS: working subspace size set to           15
   GDM::PrEWSS: # of linearly dependent vectors =            0
   GDM::PrEWSS: Max dev from orthonormality =   9.326039940305009E-012
   GDM::BFGS:   lowest Hinv e-value    0.157679524026374     
   GDM::BFGS:   highest Hinv e-value    5.63674993833727     
   GDM::      : max scaling in EWCs is          2.82842712474619     
   GDM::      : max rotation in step is       -1.095843653699916E-007
   GDM::        grad.step =  -1.351750252901188E-014
   ------- Leaving GDM -- hopefully with a step in the right direction! --------
 
   61    -717.0350555754      5.71E-08  Gap = -148.91 eV  Normal BFGS step
 
   ------------------- Entering Geometric Direct Minimization ------------------
   GDM::trust : actual energy change is        1.023181539494544E-012
   GDM::trust : predicted energy change was   -2.027625379351782E-014
   GDM::trust : updated trust radius is        0.108900000000000     
   GDM::WARNING energy changes are now smaller than effective accuracy.
   GDM::        calculation will continue, but THRESH should be increased
   GDM::        or SCF_CONVERGENCE decreased.
   GDM::        effective_thresh =   3.200000000000000E-010
   GDM:         diagonal hessian shift is      0.000000000000000E+000
   GDM::PreWSS: input subspace size is                 16
   GDM::PreWSS: working subspace size set to           12
   GDM::PrEWSS: # of linearly dependent vectors =            0
   GDM::PrEWSS: Max dev from orthonormality =   2.342875893290852E-012
   GDM::BFGS:   lowest Hinv e-value    0.185787881822551     
   GDM::BFGS:   highest Hinv e-value    4.44421709964728     
   GDM::      : max scaling in EWCs is          2.82842712474619     
   GDM::      : max rotation in step is        4.502994351569542E-008
   GDM::        grad.step =  -4.777552036979809E-016
   ------- Leaving GDM -- hopefully with a step in the right direction! --------
 
   62    -717.0350555754      7.18E-09 Convergence criterion met
 ---------------------------------------
 One-Electron    Energy = -1586.7587985713
 Total Coulomb   Energy =   647.7148912446
 Alpha Exchange  Energy =    -6.0406383712
 Beta  Exchange  Energy =    -6.0406383712
 DFT   Exchange  Energy =   -48.3340122012
 DFT Correlation Energy =    -2.9310606555
 Nuclear Repu.   Energy =   285.3552013503
 Nuclear Attr.   Energy = -2256.6714036938
 Kinetic         Energy =   669.9126051226
 SCF time:  CPU 302.82 s  wall 40.44 s
 SCF   energy in the final basis set = -717.0350555754
 Total energy in the final basis set = -717.0350555754
 
 --------------------------------------------------------------
 
                    Orbital Energies (a.u.)
 --------------------------------------------------------------
 
 Alpha MOs
 -- Occupied --
-88.858 -19.183 -19.077 -19.077  -7.940  -5.900  -5.900  -5.897
 -2.159  -1.979  -1.361  -1.361  -1.354  -1.229  -1.223  -1.182
 -0.941  -0.811  -0.784  -0.684  -0.441  -0.411  -0.410  -0.320
 -0.316  -0.315  -0.301  -0.291  -0.285  -0.272  -0.238  -0.226
 -- Virtual --
 -0.200  -0.198  -0.198  -0.107  -0.102  -0.074  -0.053  -0.049
 -0.003   0.005   0.010   0.037   0.041   0.053   0.054   0.056
  0.057   0.065   0.087   0.092   0.103   0.114   0.121   0.122
  0.125   0.136   0.153   0.157   0.202   0.208   0.221   0.221
  0.232   0.244   0.248   0.264   0.271   0.280   0.289   0.299
  0.311   0.319   0.361   0.377   0.384   0.420   0.433   0.481
  0.528   0.532   0.600   0.714   0.767   0.769   0.793   0.816
  0.847   0.868   0.923   1.194   1.207   1.216   1.239   1.239
  1.246   1.294   1.303   1.536   1.664   1.733   1.733   1.735
  1.743   1.774   1.792   1.837   1.852   1.877   1.889   1.895
  1.916   1.923   1.947   2.081   2.145   2.243  11.706  20.186
 --------------------------------------------------------------
 
          Ground-State Mulliken Net Atomic Charges

     Atom                 Charge (a.u.)
  ----------------------------------------
      1 Zr                    1.467374
      2 O                    -0.619567
      3 O                    -0.619567
      4 O                    -1.179900
      5 Zr                    1.252860
      6 S                    -0.301201
  ----------------------------------------
  Sum of atomic charges =     0.000000

 -----------------------------------------------------------------
                    Cartesian Multipole Moments
 -----------------------------------------------------------------
    Charge (ESU x 10^10)
                 0.0000
    Dipole Moment (Debye)
         X       0.0000      Y       0.0000      Z      -7.8708
       Tot       7.8708
    Quadrupole Moments (Debye-Ang)
        XX     -81.8637     XY       0.0000     YY     -64.3022
        XZ       0.0000     YZ       0.0000     ZZ    -122.2472
    Octopole Moments (Debye-Ang^2)
       XXX       0.0000    XXY       0.0000    XYY       0.0000
       YYY       0.0000    XXZ     -33.4287    XYZ       0.0000
       YYZ      17.0416    XZZ       0.0000    YZZ       0.0000
       ZZZ      25.4763
    Hexadecapole Moments (Debye-Ang^3)
      XXXX    -290.1198   XXXY       0.0000   XXYY     -58.8562
      XYYY       0.0000   YYYY     -84.5934   XXXZ       0.0000
      XXYZ       0.0000   XYYZ       0.0000   YYYZ       0.0000
      XXZZ    -656.6625   XYZZ       0.0000   YYZZ    -485.9378
      XZZZ       0.0000   YZZZ       0.0000   ZZZZ   -3816.4885
 -----------------------------------------------------------------
Archival summary:
1\1\hpc3926\SP\ProcedureUnspecified\BasisUnspecified\r213(+,1)\liqiuy\FriJan1718:58:432020FriJan1718:58:432020\0\\#,ProcedureUnspecified,BasisUnspecified,\\56,1\Zr\O,1,1.72516\O,1,1.72516,2,114.133\O,1,1.90724,2,122.934,3,-180,0\Zr,4,1.92153,1,180,2,0,0\S,5,2.1461,4,180,2,0,0\\\@

 Total job time:  41.44s(wall), 307.89s(cpu) 
 Fri Jan 17 18:58:43 2020

        *************************************************************
        *                                                           *
        *  Thank you very much for using Q-Chem.  Have a nice day.  *
        *                                                           *
        *************************************************************


0 sent ACK to 0 
now end server 0 ... 
cleanup process ... done

Running Job 2 of 2 ZrOx.in
qchem ZrOx.in_19145.1 /tmp/5732519.priya/ZrOx.save/ 1
/usr/usc/qchem/4.4/bin/mpi/mpirun_qchem -machinefile /usr/usc/qchem/4.4/bin/mpi/machines -np 1 /usr/usc/qchem/4.4/exe/qcprog.exe ZrOx.in_19145.1 /tmp/5732519.priya/ZrOx.save/

Process 0 of 1 is on hpc3926.hpcc.usc.edu - thread support 0
initial socket setup ...start
initial socket setup ...done 
now start server 0 ... 
[...]
   GDM::trust : actual energy change is       -1.625721779419109E-011
   GDM::trust : predicted energy change was   -6.777694405572658E-011
   GDM::trust : updated trust radius is        0.330000000000000     
   GDM:         diagonal hessian shift is      0.000000000000000E+000
   GDM::PreWSS: input subspace size is                  9
   GDM::PreWSS: working subspace size set to            9
   GDM::PrEWSS: # of linearly dependent vectors =            8
   GDM::PrEWSS: Max dev from orthonormality =   2.919886554764162E-014
   GDM::BFGS:   lowest Hinv e-value    0.240242291107869     
   GDM::BFGS:   highest Hinv e-value    1.22932495738485     
   GDM::      : max scaling in EWCs is          2.67305187903697     
   GDM::      : max rotation in step is        1.301084233240435E-006
   GDM::        grad.step =  -2.089255152666719E-011
   ------- Leaving GDM -- hopefully with a step in the right direction! --------
 
   10    -717.2218908714      1.84E-06  Gap = 0.00 eV  Normal BFGS step
 
   ------------------- Entering Geometric Direct Minimization ------------------
   GDM::trust : actual energy change is       -1.296029950026423E-011
   GDM::trust : predicted energy change was   -3.133882729000079E-011
   GDM::trust : updated trust radius is        0.330000000000000     
   GDM:         diagonal hessian shift is      0.000000000000000E+000
   GDM::PreWSS: input subspace size is                 10
   GDM::PreWSS: working subspace size set to           10
   GDM::PrEWSS: # of linearly dependent vectors =            9
   GDM::PrEWSS: Max dev from orthonormality =   5.380071388394470E-014
   GDM::BFGS:   lowest Hinv e-value    0.239594835350388     
   GDM::BFGS:   highest Hinv e-value    1.22515532188156     
   GDM::      : max scaling in EWCs is          2.67306329880480     
   GDM::      : max rotation in step is       -9.505511118845782E-007
   GDM::        grad.step =  -4.818120584404695E-012
   ------- Leaving GDM -- hopefully with a step in the right direction! --------
 
   11    -717.2218908715      1.07E-06  Gap = 0.00 eV  Normal BFGS step
 
   ------------------- Entering Geometric Direct Minimization ------------------
   GDM::trust : actual energy change is       -2.273736754432321E-012
   GDM::trust : predicted energy change was   -7.227180876607039E-012
   GDM::trust : updated trust radius is        0.330000000000000     
   GDM:         diagonal hessian shift is      0.000000000000000E+000
   GDM::PreWSS: input subspace size is                 11
   GDM::PreWSS: working subspace size set to           11
   GDM::PrEWSS: # of linearly dependent vectors =           10
   GDM::PrEWSS: Max dev from orthonormality =   2.317937508600210E-013
   GDM::BFGS:   lowest Hinv e-value    0.244463329409088     
   GDM::BFGS:   highest Hinv e-value    1.21109160230570     
   GDM::      : max scaling in EWCs is          2.67304484341310     
   GDM::      : max rotation in step is       -3.019030580566817E-007
   GDM::        grad.step =  -1.195936070809745E-012
   ------- Leaving GDM -- hopefully with a step in the right direction! --------
 
   12    -717.2218908715      4.32E-07  Gap = 0.00 eV  Normal BFGS step
 
   ------------------- Entering Geometric Direct Minimization ------------------
   GDM::trust : actual energy change is        2.273736754432321E-013
   GDM::trust : predicted energy change was   -1.793904106214618E-012
   GDM::trust : updated trust radius is        0.108900000000000     
   GDM::WARNING energy changes are now smaller than effective accuracy.
   GDM::        calculation will continue, but THRESH should be increased
   GDM::        or SCF_CONVERGENCE decreased.
   GDM::        effective_thresh =   3.200000000000000E-010
   GDM:         diagonal hessian shift is      0.000000000000000E+000
   GDM::PreWSS: input subspace size is                 12
   GDM::PreWSS: working subspace size set to           12
   GDM::PrEWSS: # of linearly dependent vectors =           11
   GDM::PrEWSS: Max dev from orthonormality =   3.995484498808821E-013
   GDM::BFGS:   lowest Hinv e-value    0.234750235507631     
   GDM::BFGS:   highest Hinv e-value    1.21740250427370     
   GDM::      : max scaling in EWCs is          2.67305219535213     
   GDM::      : max rotation in step is        1.744304183978441E-007
   GDM::        grad.step =  -9.430124583526133E-014
   ------- Leaving GDM -- hopefully with a step in the right direction! --------
 
   13    -717.2218908715      1.66E-07  Gap = -186.04 eV  Normal BFGS step
 
   ------------------- Entering Geometric Direct Minimization ------------------
   GDM::trust : actual energy change is        3.410605131648481E-013
   GDM::trust : predicted energy change was   -1.414518687528920E-013
   GDM::trust : updated trust radius is        0.108900000000000     
   GDM::WARNING energy changes are now smaller than effective accuracy.
   GDM::        calculation will continue, but THRESH should be increased
   GDM::        or SCF_CONVERGENCE decreased.
   GDM::        effective_thresh =   3.200000000000000E-010
   GDM:         diagonal hessian shift is      0.000000000000000E+000
   GDM::PreWSS: input subspace size is                 13
   GDM::PreWSS: working subspace size set to           13
   GDM::PrEWSS: # of linearly dependent vectors =           12
   GDM::PrEWSS: Max dev from orthonormality =   9.845388393436849E-013
   GDM::BFGS:   lowest Hinv e-value    0.240257753813774     
   GDM::BFGS:   highest Hinv e-value    1.24812008081562     
   GDM::      : max scaling in EWCs is          2.67305025395180     
   GDM::      : max rotation in step is       -1.146232766271225E-007
   GDM::        grad.step =  -9.531011392211342E-014
   ------- Leaving GDM -- hopefully with a step in the right direction! --------
 
   14    -717.2218908715      2.41E-07  Gap = -186.04 eV  Normal BFGS step
 
   ------------------- Entering Geometric Direct Minimization ------------------
   GDM::trust : actual energy change is       -1.136868377216160E-012
   GDM::trust : predicted energy change was   -1.429651708831701E-013
   GDM::trust : updated trust radius is        0.330000000000000     
   GDM:         diagonal hessian shift is      0.000000000000000E+000
   GDM::PreWSS: input subspace size is                 14
   GDM::PreWSS: working subspace size set to           14
   GDM::PrEWSS: # of linearly dependent vectors =           13
   GDM::PrEWSS: Max dev from orthonormality =   1.108378319680803E-011
   GDM::BFGS:   lowest Hinv e-value    0.241047822876181     
   GDM::BFGS:   highest Hinv e-value    1.21973001545872     
   GDM::      : max scaling in EWCs is          2.67305192024706     
   GDM::      : max rotation in step is       -2.240759024223955E-008
   GDM::        grad.step =  -2.411100773862941E-014
   ------- Leaving GDM -- hopefully with a step in the right direction! --------
 
   15    -717.2218908715      4.82E-08  Gap = -186.04 eV  Normal BFGS step
 
   ------------------- Entering Geometric Direct Minimization ------------------
   GDM::trust : actual energy change is        9.094947017729282E-013
   GDM::trust : predicted energy change was   -3.616651160794412E-014
   GDM::trust : updated trust radius is        0.108900000000000     
   GDM::WARNING energy changes are now smaller than effective accuracy.
   GDM::        calculation will continue, but THRESH should be increased
   GDM::        or SCF_CONVERGENCE decreased.
   GDM::        effective_thresh =   3.200000000000000E-010
   GDM:         diagonal hessian shift is      0.000000000000000E+000
   GDM::PreWSS: input subspace size is                 15
   GDM::PreWSS: working subspace size set to           15
   GDM::PrEWSS: # of linearly dependent vectors =           14
   GDM::PrEWSS: Max dev from orthonormality =   2.721031733265988E-012
   GDM::BFGS:   lowest Hinv e-value    0.237626061926955     
   GDM::BFGS:   highest Hinv e-value    1.20485670001693     
   GDM::      : max scaling in EWCs is          2.67305144368552     
   GDM::      : max rotation in step is        9.043036479771960E-009
   GDM::        grad.step =  -3.589160273693142E-015
   ------- Leaving GDM -- hopefully with a step in the right direction! --------
 
   16    -717.2218908715      1.51E-08  Gap = -186.04 eV  Normal BFGS step
 
   ------------------- Entering Geometric Direct Minimization ------------------
   GDM::trust : actual energy change is        1.136868377216160E-013
   GDM::trust : predicted energy change was   -5.383740410539714E-015
   GDM::trust : updated trust radius is        0.108900000000000     
   GDM::WARNING energy changes are now smaller than effective accuracy.
   GDM::        calculation will continue, but THRESH should be increased
   GDM::        or SCF_CONVERGENCE decreased.
   GDM::        effective_thresh =   3.200000000000000E-010
   GDM:         diagonal hessian shift is      0.000000000000000E+000
   GDM::PreWSS: input subspace size is                 16
   GDM::PreWSS: working subspace size set to           16
   GDM::PrEWSS: # of linearly dependent vectors =           15
   GDM::PrEWSS: Max dev from orthonormality =   2.873178084339401E-011
   GDM::BFGS:   lowest Hinv e-value    0.241669897767375     
   GDM::BFGS:   highest Hinv e-value    1.20260208658420     
   GDM::      : max scaling in EWCs is          2.67305144623019     
   GDM::      : max rotation in step is        2.759914186078248E-009
   GDM::        grad.step =  -6.709343501655210E-017
   ------- Leaving GDM -- hopefully with a step in the right direction! --------
 
   17    -717.2218908715      3.38E-09 Convergence criterion met
 ---------------------------------------
 One-Electron    Energy = -1619.5138312156
 Total Coulomb   Energy =   663.5453094072
 Alpha Exchange  Energy =    -6.0294433601
 Beta  Exchange  Energy =    -6.0294433601
 DFT   Exchange  Energy =   -48.2045144831
 DFT Correlation Energy =    -2.9249195050
 Nuclear Repu.   Energy =   301.9349516452
 Nuclear Attr.   Energy = -2288.1416119661
 Kinetic         Energy =   668.6277807505
 SCF time:  CPU 80.29 s  wall 7.81 s
 SCF   energy in the final basis set = -717.2218908715
 Total energy in the final basis set = -717.2218908715
 
 --------------------------------------------------------------
 
                    Orbital Energies (a.u.)
 --------------------------------------------------------------
 
 Alpha MOs
 -- Occupied --
-88.810 -19.175 -19.175 -19.136  -7.888  -5.849  -5.846  -5.846
 -2.106  -2.102  -1.325  -1.312  -1.309  -1.308  -1.300  -1.292
 -0.930  -0.926  -0.858  -0.630  -0.409  -0.406  -0.393  -0.393
 -0.366  -0.365  -0.328  -0.313  -0.307  -0.259  -0.258  -0.242
 -- Virtual --
 -0.172  -0.141  -0.141  -0.104  -0.092  -0.075  -0.050  -0.040
 -0.032  -0.012  -0.004   0.004   0.013   0.021   0.031   0.033
  0.052   0.076   0.092   0.101   0.105   0.108   0.110   0.126
  0.137   0.143   0.153   0.163   0.186   0.190   0.196   0.203
  0.204   0.214   0.220   0.233   0.236   0.262   0.267   0.270
  0.276   0.286   0.326   0.358   0.361   0.419   0.444   0.497
  0.573   0.579   0.641   0.650   0.707   0.777   0.834   0.847
  0.878   0.929   0.940   1.108   1.150   1.185   1.193   1.226
  1.247   1.267   1.272   1.295   1.635   1.705   1.720   1.753
  1.760   1.762   1.781   1.797   1.805   1.816   1.816   1.838
  1.859   1.867   1.869   1.940   2.027   2.063  11.592  14.181
 --------------------------------------------------------------
 
          Ground-State Mulliken Net Atomic Charges

     Atom                 Charge (a.u.)
  ----------------------------------------
      1 Zr                    1.645877
      2 O                    -1.005384
      3 O                    -0.557264
      4 O                    -1.006645
      5 Zr                    1.296390
      6 S                    -0.372973
  ----------------------------------------
  Sum of atomic charges =     0.000000

 -----------------------------------------------------------------
                    Cartesian Multipole Moments
 -----------------------------------------------------------------
    Charge (ESU x 10^10)
                 0.0000
    Dipole Moment (Debye)
         X      -0.7400      Y       0.0000      Z       2.4752
       Tot       2.5834
    Quadrupole Moments (Debye-Ang)
        XX     -85.6794     XY       0.0000     YY     -63.2332
        XZ       9.4826     YZ       0.0000     ZZ    -111.4745
    Octopole Moments (Debye-Ang^2)
       XXX     -30.3425    XXY       0.0000    XYY      -9.8002
       YYY       0.0000    XXZ      -2.8036    XYZ       0.0000
       YYZ       5.1764    XZZ      -4.7438    YZZ       0.0000
       ZZZ     -35.0421
    Hexadecapole Moments (Debye-Ang^3)
      XXXX    -450.0067   XXXY       0.0000   XXYY     -82.3921
      XYYY       0.0000   YYYY     -79.3489   XXXZ     285.1896
      XXYZ       0.0000   XYYZ      86.7448   YYYZ       0.0000
      XXZZ    -476.3964   XYZZ       0.0000   YYZZ    -337.7041
      XZZZ     481.4028   YZZZ       0.0000   ZZZZ   -2747.3767
 -----------------------------------------------------------------
 Calculating analytic gradient of the SCF energy
 Gradient of SCF Energy
            1           2           3           4           5           6
    1  -0.0001190   0.0000040   0.0001270   0.0001317  -0.0001519   0.0000082
    2  -0.0000000  -0.0000000   0.0000000  -0.0000000  -0.0000000   0.0000000
    3   0.0000969   0.0000082  -0.0001735  -0.0001133   0.0001495   0.0000323
 Max gradient component =       1.735E-04
 RMS gradient           =       9.023E-05
 Gradient time:  CPU 14.72 s  wall 2.26 s
 Geometry Optimization Parameters
   NAtoms,    NIC,     NZ,  NCons,   NDum,   NFix, NCnnct, MaxDiis
        6      25       0       0       0       0       0       0

 Cartesian Hessian Update
 Hessian Updated using BFGS Update


** GEOMETRY OPTIMIZATION IN CARTESIAN COORDINATES **
   Searching for a Minimum

   Optimization Cycle:  74

                       Coordinates (Angstroms)
     ATOM                X               Y               Z
      1  Zr       -0.4587982407    0.0000000000    1.9642426956
      2  O         1.2907691529    0.0000000000    0.8731377548
      3  O        -0.9901513531    0.0000000000    3.6813962775
      4  O        -1.3277258745    0.0000000000    0.1049013324
      5  Zr        0.4072727281    0.0000000000   -0.9395349300
      6  S         1.0786335889    0.0000000000   -3.1143831302
   Point Group: c1    Number of degrees of freedom:    12


   Energy is   -717.221890871


 Translations and Rotations Projected Out of Hessian

  9 Hessian modes will be used to form the next step
  Hessian Eigenvalues:
     0.006038    0.055242    0.093620    0.214662    0.295191    0.296290
     0.431692    0.857090    1.668019

 Minimum Search - Taking Simple RFO Step
 Searching for Lamda that Minimizes Along All modes
 Value Taken    Lamda =   0.00000000
 Step Taken.  Stepsize is  0.003431

                             Maximum     Tolerance    Cnvgd?
         Gradient           0.000174      0.000300     YES
         Displacement       0.001773      0.001200      NO
         Energy change      0.000000      0.000001     YES


                       Distance Matrix (Angstroms)
             Zr(  1)   O (  2)   O (  3)   O (  4)   Zr(  5)
   O (  2)  2.061916
   O (  3)  1.797485  3.617860
   O (  4)  2.052361  2.728865  3.592391
   Zr(  5)  3.030182  2.016519  4.827608  2.025109
   S (  6)  5.306236  3.993160  7.103695  4.019248  2.276113
 
 Final energy is   -717.221890871457     


 ******************************
 **  OPTIMIZATION CONVERGED  **
 ******************************

                       Coordinates (Angstroms)
     ATOM                X               Y               Z
      1  Zr       -0.4587982407    0.0000000000    1.9642426956
      2  O         1.2907691529    0.0000000000    0.8731377548
      3  O        -0.9901513531    0.0000000000    3.6813962775
      4  O        -1.3277258745    0.0000000000    0.1049013324
      5  Zr        0.4072727281    0.0000000000   -0.9395349300
      6  S         1.0786335889    0.0000000000   -3.1143831302

Z-matrix Print:
$molecule
0 1
Zr
O  1 2.016519
O  1 2.025109 2 84.937455
Zr 3 2.052361 1 95.999007 2 0.000000 0
O  4 1.797485 3 137.757793 1 -180.000000 0
S  1 2.276113 2 136.860301 3 -180.000000 0
$end

 
 --------------------------------------------------------------
 
                    Orbital Energies (a.u.)
 --------------------------------------------------------------
 
 Alpha MOs
 -- Occupied --
-88.810 -19.175 -19.175 -19.136  -7.888  -5.849  -5.846  -5.846
 -2.106  -2.102  -1.325  -1.312  -1.309  -1.308  -1.300  -1.292
 -0.930  -0.926  -0.858  -0.630  -0.409  -0.406  -0.393  -0.393
 -0.366  -0.365  -0.328  -0.313  -0.307  -0.259  -0.258  -0.242
 -- Virtual --
 -0.172  -0.141  -0.141  -0.104  -0.092  -0.075  -0.050  -0.040
 -0.032  -0.012  -0.004   0.004   0.013   0.021   0.031   0.033
  0.052   0.076   0.092   0.101   0.105   0.108   0.110   0.126
  0.137   0.143   0.153   0.163   0.186   0.190   0.196   0.203
  0.204   0.214   0.220   0.233   0.236   0.262   0.267   0.270
  0.276   0.286   0.326   0.358   0.361   0.419   0.444   0.497
  0.573   0.579   0.641   0.650   0.707   0.777   0.834   0.847
  0.878   0.929   0.940   1.108   1.150   1.185   1.193   1.226
  1.247   1.267   1.272   1.295   1.635   1.705   1.720   1.753
  1.760   1.762   1.781   1.797   1.805   1.816   1.816   1.838
  1.859   1.867   1.869   1.940   2.027   2.063  11.592  14.181
 --------------------------------------------------------------
 
          Ground-State Mulliken Net Atomic Charges

     Atom                 Charge (a.u.)
  ----------------------------------------
      1 Zr                    1.645877
      2 O                    -1.005384
      3 O                    -0.557264
      4 O                    -1.006645
      5 Zr                    1.296390
      6 S                    -0.372973
  ----------------------------------------
  Sum of atomic charges =     0.000000

 -----------------------------------------------------------------
                    Cartesian Multipole Moments
 -----------------------------------------------------------------
    Charge (ESU x 10^10)
                 0.0000
    Dipole Moment (Debye)
         X      -0.7400      Y       0.0000      Z       2.4752
       Tot       2.5834
    Quadrupole Moments (Debye-Ang)
        XX     -85.6794     XY       0.0000     YY     -63.2332
        XZ       9.4826     YZ       0.0000     ZZ    -111.4745
    Octopole Moments (Debye-Ang^2)
       XXX     -30.3425    XXY       0.0000    XYY      -9.8002
       YYY       0.0000    XXZ      -2.8036    XYZ       0.0000
       YYZ       5.1764    XZZ      -4.7438    YZZ       0.0000
       ZZZ     -35.0421
    Hexadecapole Moments (Debye-Ang^3)
      XXXX    -450.0067   XXXY       0.0000   XXYY     -82.3921
      XYYY       0.0000   YYYY     -79.3489   XXXZ     285.1896
      XXYZ       0.0000   XYYZ      86.7448   YYYZ       0.0000
      XXZZ    -476.3964   XYZZ       0.0000   YYZZ    -337.7041
      XZZZ     481.4028   YZZZ       0.0000   ZZZZ   -2747.3767
 -----------------------------------------------------------------
Archival summary:
1\1\hpc3926\OPT\ProcedureUnspecified\BasisUnspecified\r213(+,1)\liqiuy\FriJan1719:20:262020FriJan1719:20:262020\0\\#,OPT,ProcedureUnspecified,BasisUnspecified,\\56,1\Zr\O,1,2.01652\O,1,2.02511,2,84.9375\Zr,3,2.05236,1,95.999,2,0,0\O,4,1.79749,3,137.758,1,-180,0\S,1,2.27611,2,136.86,3,-180,0\\\@

 Total job time:  1299.72s(wall), 10538.23s(cpu) 
 Fri Jan 17 19:20:26 2020

        *************************************************************
        *                                                           *
        *  Thank you very much for using Q-Chem.  Have a nice day.  *
        *                                                           *
        *************************************************************


0 sent ACK to 0 
now end server 0 ... 
cleanup process ... done
