
Running Job 1 of 2 ZrOx.in
qchem ZrOx.in_29768.0 /tmp/5732526.priya/ZrOx.save/ 1
/usr/usc/qchem/4.4/bin/mpi/mpirun_qchem -machinefile /usr/usc/qchem/4.4/bin/mpi/machines -np 1 /usr/usc/qchem/4.4/exe/qcprog.exe ZrOx.in_29768.0 /tmp/5732526.priya/ZrOx.save/

Process 0 of 1 is on hpc3916.hpcc.usc.edu - thread support 0
initial socket setup ...start
initial socket setup ...done 
now start server 0 ... 
Check license passed

                  Welcome to Q-Chem
     A Quantum Leap Into The Future Of Chemistry


 Q-Chem 4.4, Q-Chem, Inc., Pleasanton, CA (2016)

 Y. Shao,  Z. Gan,  E. Epifanovsky,  A. T. B. Gilbert,  M. Wormit,  
 J. Kussmann,  A. W. Lange,  A. Behn,  J. Deng,  X. Feng,  D. Ghosh,  
 M. Goldey,  P. R. Horn,  L. D. Jacobson,  I. Kaliman,  F.Rob,  
 R. Z. Khaliullin,  T. Kus,  A. Landau,  J. Liu,  E. I. Proynov,  Y. M. Rhee,  
 R. M. Richard,  M. A. Rohrdanz,  R. P. Steele,  E. J. Sundstrom,  
 H. L. Woodcock III,  P. M. Zimmerman,  D. Zuev,  B. Albrecht,  E. Alguire,  
 B. Austin,  S. A. Baeppler,  G. J. O. Beran,  Y. A. Bernard,  E. Berquist,  
 K. Brandhorst,  K. B. Bravaya,  S. T. Brown,  D. Casanova,  C.-M. Chang,  
 Y. Chen,  S. H. Chien,  K. D. Closser,  M. P. Coons,  D. L. Crittenden,  
 S. Dasgupta,  M. Diedenhofen,  R. A. DiStasio Jr.,  H. Do,  A. D. Dutoi,  
 R. G. Edgar,  P.-T. Fang,  S. Fatehi,  Q. Feng,  L. Fusti-Molnar,  
 A. Ghysels,  A. Golubeva-Zadorozhnaya,  J. Gomes,  A. Gunina,  
 M. W. D. Hanson-Heine,  P. H. P. Harbach,  A. W. Hauser,  E. G. Hohenstein,  
 Z. C. Holden,  K. Hui,  T.-C. Jagau,  H. Ji,  B. Kaduk,  K. Khistyaev,  
 Jaehoon Kim,  Jihan Kim,  R. A. King,  P. Klunzinger,  D. Kosenkov,  
 T. Kowalczyk,  C. M. Krauter,  A. Kunitsa,  K. U. Lao,  A. Laurent,  
 K. V. Lawler,  D. Lefrancois,  S. Lehtola,  S. V. Levchenko,  C. Y. Lin,  
 Y.-S. Lin,  F. Liu,  E. Livshits,  R. C. Lochan,  A. Luenser,  P. Manohar,  
 S. F. Manzer,  S.-P. Mao,  Y. Mao,  N. Mardirossian,  A. V. Marenich,  
 L. A. Martinez-Martinez,  S. A. Maurer,  N. J. Mayhall,  J.-M. Mewes,  
 A. F. Morrison,  K. Nanda,  C. M. Oana,  R. Olivares-Amaya,  D. P. O'Neill,  
 J. A. Parkhill,  T. M. Perrine,  R. Peverati,  P. A. Pieniazek,  F. Plasser,  
 A. Prociuk,  D. R. Rehn,  E. Rosta,  N. J. Russ,  N. Sergueev,  
 S. M. Sharada,  S. Sharma,  D. W. Small,  A. Sodt,  T. Stauch,  T. Stein,  
 D. Stuck,  Y.-C. Su,  A. J. W. Thom,  T. Tsuchimochi,  L. Vogt,  O. Vydrov,  
 T. Wang,  M. A. Watson,  J. Wenzel,  A. White,  C. F. Williams,  
 V. Vanovschi,  S. Yeganeh,  S. R. Yost,  Z.-Q. You,  I. Y. Zhang,  X. Zhang,  
 Y. Zhao,  B. R. Brooks,  G. K. L. Chan,  D. M. Chipman,  C. J. Cramer,  
 W. A. Goddard III,  M. S. Gordon,  W. J. Hehre,  A. Klamt,  
 H. F. Schaefer III,  M. W. Schmidt,  C. D. Sherrill,  D. G. Truhlar,  
 A. Warshel,  X. Xu,  A. Aspuru-Guzik,  R. Baer,  A. T. Bell,  N. A. Besley,  
 J.-D. Chai,  A. Dreuw,  B. D. Dunietz,  T. R. Furlani,  S. R. Gwaltney,  
 C.-P. Hsu,  Y. Jung,  J. Kong,  D. S. Lambrecht,  W. Liang,  C. Ochsenfeld,  
 V. A. Rassolov,  L. V. Slipchenko,  J. E. Subotnik,  T. Van Voorhis,  
 J. M. Herbert,  A. I. Krylov,  P. M. W. Gill,  M. Head-Gordon

 Contributors to earlier versions of Q-Chem not listed above: 
 R. D. Adamson,  J. Baker,  E. F. C. Byrd,  A. K. Chakraborty,  C.-L. Cheng,  
 H. Dachsel,  R. J. Doerksen,  G. Hawkins,  A. Heyden,  S. Hirata,  
 G. Kedziora,  F. J. Keil,  C. Kelley,  P. P. Korambath,  W. Kurlancheek,  
 A. M. Lee,  M. S. Lee,  D. Liotard,  I. Lotan,  P. E. Maslen,  N. Nair,  
 D. Neuhauser,  R. Olson,  B. Peters,  J. Ritchie,  N. E. Schultz,  
 N. Shenvi,  A. C. Simmonett,  K. S. Thanthiriwatte,  Q. Wu,  W. Zhang

 Please cite Q-Chem as follows:
 Y. Shao et al., Mol. Phys. 113, 184-215 (2015)
 DOI: 10.1080/00268976.2014.952696

 Q-Chem 4.4.1 for Intel X86 Linux

 Parts of Q-Chem use Armadillo 5.200.1 (Boston Tea Smuggler).
 http://arma.sourceforge.net/

 Q-Chem begins on Fri Jan 17 18:58:40 2020  

Host: 
0

     Scratch files written to /tmp/5732526.priya/ZrOx.save//
 Jul2716 11668_ 21447  21445 5558   
 Parallel job on  1  processors
Processing $rem in /usr/usc/qchem/4.4/config/preferences.
 MEM_TOTAL  2000 

Checking the input file for inconsistencies... 	...done.

--------------------------------------------------------------
User input:
--------------------------------------------------------------
$comment
--------------------------------------------------------
A SINGLE POINT DFT CALCULATION WITH BASIS SET PROJECTION
--------------------------------------------------------
$end

$molecule
0 1
Zr 0.00000 0.00000 2.19400
O 1.44024 0.00000 3.13771
O -1.44024 0.00000 3.13771
S 0.00000 0.00000 -0.14159
Zr 0.00000 0.00000 -2.54934
O 0.00000 0.00000 -4.24067
$end

$rem
JOBTYPE   SP
METHOD   B3LYP
BASIS   GEN
ECP   GEN
MAX_SCF_CYCLES   200
SCF_CONVERGENCE 8
SCF_PRINT 1
PDB_PRINT 2
THRESH 14
VARTHRESH 14
INCDFT FALSE
SYMMETRY False
Sym_ignore True
SCF_ALGORITHM GDM
XC_GRID 000128000302
DFT_D           EMPIRICAL_GRIMME3
DFT_D3_S6       1000
DFT_D3_RS6     1261
DFT_D3_S8      1703
DFT_D3_3BODY    FALSE
$end

$basis
O
6-31+G**
****
S
6-31+G**
****
Zr
LanL2DZ
****
$end

$ecp
Zr
LanL2DZ
****
$end

--------------------------------------------------------------
 ----------------------------------------------------------------
             Standard Nuclear Orientation (Angstroms)
    I     Atom           X                Y                Z
 ----------------------------------------------------------------
    1      Zr      0.0000000000     0.0000000000     2.1940000000
    2      O       1.4402400000     0.0000000000     3.1377100000
    3      O      -1.4402400000     0.0000000000     3.1377100000
    4      S       0.0000000000     0.0000000000    -0.1415900000
    5      Zr      0.0000000000     0.0000000000    -2.5493400000
    6      O       0.0000000000     0.0000000000    -4.2406700000
 ----------------------------------------------------------------
 Nuclear Repulsion Energy =   291.1318662573 hartrees
 There are       32 alpha and       32 beta electrons

 Q-Chem warning in module /home/scratch/svnadmin/11668_zgan/qchem/forms1/BasisType.C, line 1419:

 Setting pure/cartesian flag to 2111 for general basis


 Requested basis set is non-standard
 There are 37 shells and 120 basis functions

 Total QAlloc Memory Limit   2000 MB
 Mega-Array Size        61 MB
 MEM_STATIC part        62 MB

                       Distance Matrix (Angstroms)
             Zr(  1)   O (  2)   O (  3)   S (  4)   Zr(  5)
   O (  2)  1.721883
   O (  3)  1.721883  2.880480
   S (  4)  2.335590  3.581634  3.581634
   Zr(  5)  4.743340  5.866586  5.866586  2.407750
   O (  6)  6.434670  7.517631  7.517631  4.099080  1.691330
 
 A cutoff of  1.0D-14 yielded    639 shell pairs
 There are      6891 function pairs (      7848 Cartesian)
 
 -------------------------------------------------------
 OpenMP Integral Computing Module                       
 Release: version 1.0, May 2013, Q-Chem Inc. Pittsburgh 
 -------------------------------------------------------
 Integral Job Info:
 Integral job number is                      11
 Integral operator is                         1
 short-range coefficients                     0
 long-range coefficients              100000000
 Omega coefficients                           0
 if combine SR and LR in K                    0
 Integral screening is                        0
 Integral computing path is                   2
 max size of driver memory is            800000
 size of driver memory is                593474
 size of scratch memory is             15166112
 max col of scratch BK array               1296
 max len of scratch array in speh3          155
 max len of scratch index in speh4           18
 max int batch size is                      520
 min int batch size is                       52
 fixed nKL is                                52
 max L of basis functions is                  2
 order of int derivative is                   0
 number of shells is                         37
 number of basis is                         128
 number of cartesian basis is               128
 number of contracted shell pairs           639
 number of primitive shell pairs           2951
 maxK2 (contraction) of shell pair           36
 max number of K2 of shell pair               1
 max number of CS2 of shell pair             45
 max number of PS2 of shell pair            210
 mem total for path MDJ                   28072
 -------------------------------------------------------
 Requested basis set is non-standard
 Compound shells will be simplified
 There are 50 shells and 120 basis functions
 A cutoff of  1.0D-14 yielded   1160 shell pairs
 There are      6846 function pairs (      7803 Cartesian)
 Smallest overlap matrix eigenvalue = 6.23E-04

 Scale SEOQF with 1.000000e-01/1.000000e-01/1.000000e-01

 Standard Electronic Orientation quadrupole field applied
 Nucleus-field energy     =    -0.0000000457 hartrees
 Guess MOs from core Hamiltonian diagonalization
 A restricted hybrid HF-DFT SCF calculation will be
 performed using Geometric Direct Minimization
 Exchange:     0.2000 Hartree-Fock + 0.0800 Slater + 0.7200 B88
 Correlation:  0.1900 VWN1RPA + 0.8100 LYP
 Using Euler-Maclaurin-Lebedev (128,302) quadrature formula
 Dispersion:   Grimme D3
 SCF converges when RMS gradient is below 1.0E-08
 Maximum number of minimization steps = 200
 using 12 threads for integral computing 
 -------------------------------------------------------
 OpenMP BLAS3 based DFT computing Module                
 Release: version 1.0, May 2013, Q-Chem Inc. Pittsburgh 
 -------------------------------------------------------
 
   ------------------- Entering Geometric Direct Minimization ------------------
   GDM:         diagonal hessian shift is      0.000000000000000E+000
   GDM::PreWSS: input subspace size is                  1
   GDM::PreWSS: working subspace size set to            1
   GDM::PrEWSS: # of linearly dependent vectors =            0
   GDM::PrEWSS: Max dev from orthonormality =   1.110223024625157E-016
   GDM::BFGS:   lowest Hinv e-value     1.00000000000000     
   GDM::BFGS:   highest Hinv e-value    1.00000000000000     
   GDM::      : max scaling in EWCs is          2.82842712474619     
   GDM::      : max rotation in step is        0.420840580487822     
   GDM::        grad.step =   -2.37267276962522     
   ------- Leaving GDM -- hopefully with a step in the right direction! --------
 
 ---------------------------------------
  Cycle       Energy        RMS Gradient
 ---------------------------------------
    1    -641.5272493484      3.56E+00  Gap = 0.00 eV  Descent step
 
   ------------------- Entering Geometric Direct Minimization ------------------
   GDM::trust : actual energy change is        -4.33121533951407     
   GDM::trust : predicted energy change was   -0.163350000000000     
   GDM::trust : updated trust radius is        0.330000000000000     
   GDM:         diagonal hessian shift is      0.000000000000000E+000
   GDM::PreWSS: input subspace size is                  2
   GDM::PreWSS: working subspace size set to            2
   GDM::PrEWSS: # of linearly dependent vectors =            0
   GDM::PrEWSS: Max dev from orthonormality =   4.454769886308441E-015
   GDM::BFGS:   lowest Hinv e-value    0.819330056674349     
   GDM::BFGS:   highest Hinv e-value    1.61680437600046     
   GDM::      : max scaling in EWCs is          2.82842712474619     
   GDM::      : max rotation in step is       -0.163064983108122     
   GDM::        grad.step =   -1.12563963606673     
   ------- Leaving GDM -- hopefully with a step in the right direction! --------
 
    2    -645.8584646879      9.13E-01  Gap = 0.00 eV  Descent step
 
   ------------------- Entering Geometric Direct Minimization ------------------
   GDM::trust : actual energy change is        -2.13168740758442     
   GDM::trust : predicted energy change was   -0.160116638382193     
   GDM::trust : updated trust radius is        0.330000000000000     
   GDM:         diagonal hessian shift is      0.000000000000000E+000
   GDM::PreWSS: input subspace size is                  3
   GDM::PreWSS: working subspace size set to            3
   GDM::PrEWSS: # of linearly dependent vectors =            0
   GDM::PrEWSS: Max dev from orthonormality =   8.770761894538737E-015
   GDM::BFGS:   lowest Hinv e-value    0.469287120644351     
   GDM::BFGS:   highest Hinv e-value    2.48754129924921     
   GDM::      : max scaling in EWCs is          2.82842712474619     
   GDM::      : max rotation in step is       -0.169629788383130     
   GDM::        grad.step =  -0.970127535875262     
   ------- Leaving GDM -- hopefully with a step in the right direction! --------
 
    3    -647.9901520955      5.88E-01  Gap = 0.00 eV  Descent step
 
   ------------------- Entering Geometric Direct Minimization ------------------
   GDM::trust : actual energy change is        -1.85034518019938     
   GDM::trust : predicted energy change was   -0.143582794820579     
   GDM::trust : updated trust radius is        0.330000000000000     
   GDM:         diagonal hessian shift is      0.000000000000000E+000
   GDM::PreWSS: input subspace size is                  4
   GDM::PreWSS: working subspace size set to            4
   GDM::PrEWSS: # of linearly dependent vectors =            0
   GDM::PrEWSS: Max dev from orthonormality =   2.410224797522176E-013
   GDM::BFGS:   lowest Hinv e-value    0.296568195427705     
   GDM::BFGS:   highest Hinv e-value    2.63060376138335     
   GDM::      : max scaling in EWCs is          2.82842712474619     
   GDM::      : max rotation in step is       -0.177362476812014     
   GDM::        grad.step =  -0.910438016648648     
   ------- Leaving GDM -- hopefully with a step in the right direction! --------
 
    4    -649.8404972757      5.66E-01  Gap = 0.00 eV  Descent step
 
   ------------------- Entering Geometric Direct Minimization ------------------
   GDM::trust : actual energy change is        -1.74490397620309     
   GDM::trust : predicted energy change was   -0.136040490325888     
   GDM::trust : updated trust radius is        0.330000000000000     
   GDM:         diagonal hessian shift is      0.000000000000000E+000
   GDM::PreWSS: input subspace size is                  5
   GDM::PreWSS: working subspace size set to            5
   GDM::PrEWSS: # of linearly dependent vectors =            0
   GDM::PrEWSS: Max dev from orthonormality =   6.828565490835103E-013
   GDM::BFGS:   lowest Hinv e-value    0.195286861323327     
   GDM::BFGS:   highest Hinv e-value    3.29979418956651     
   GDM::      : max scaling in EWCs is          2.82842712474619     
   GDM::      : max rotation in step is        0.436940134975189     
   GDM::        grad.step =  -0.966779764879912     
   ------- Leaving GDM -- hopefully with a step in the right direction! --------
 
    5    -651.5854012519      1.37E+00  Gap = 0.00 eV  Descent step
 
   ------------------- Entering Geometric Direct Minimization ------------------
   GDM::trust : actual energy change is        -1.76691993074917     
   GDM::trust : predicted energy change was   -0.146994950851121     
   GDM::trust : updated trust radius is        0.330000000000000     
   GDM:         diagonal hessian shift is      0.000000000000000E+000
   GDM::PreWSS: input subspace size is                  6
   GDM::PreWSS: working subspace size set to            6
   GDM::PrEWSS: # of linearly dependent vectors =            0
   GDM::PrEWSS: Max dev from orthonormality =   1.007118000106999E-012
   GDM::BFGS:   lowest Hinv e-value    0.194565645034531     
   GDM::BFGS:   highest Hinv e-value    3.86475308802044     
   GDM::      : max scaling in EWCs is          2.82842712474619     
   GDM::      : max rotation in step is        0.194090294070280     
   GDM::        grad.step =  -0.843553808175093     
   ------- Leaving GDM -- hopefully with a step in the right direction! --------
 
    6    -653.3523211826      8.19E-01  Gap = 0.00 eV  Descent step
 
   ------------------- Entering Geometric Direct Minimization ------------------
   GDM::trust : actual energy change is        -1.67920392200017     
   GDM::trust : predicted energy change was   -0.155776731553308     
   GDM::trust : updated trust radius is        0.330000000000000     
   GDM:         diagonal hessian shift is      0.000000000000000E+000
   GDM::PreWSS: input subspace size is                  7
   GDM::PreWSS: working subspace size set to            7
   GDM::PrEWSS: # of linearly dependent vectors =            0
   GDM::PrEWSS: Max dev from orthonormality =   1.204841781898836E-012
   GDM::BFGS:   lowest Hinv e-value    0.113246140119423     
   GDM::BFGS:   highest Hinv e-value    20.8235609122641     
   GDM::      : max scaling in EWCs is          2.82842712474619     
   GDM::      : max rotation in step is        0.238136475715928     
   GDM::        grad.step =  -0.914169176903307     
   ------- Leaving GDM -- hopefully with a step in the right direction! --------
 
    7    -655.0315251046      9.57E-01  Gap = 0.00 eV  Descent step
 
   ------------------- Entering Geometric Direct Minimization ------------------
   GDM::trust : actual energy change is        -1.81919558564641     
   GDM::trust : predicted energy change was   -0.174406575390099     
   GDM::trust : updated trust radius is        0.330000000000000     
   GDM:         diagonal hessian shift is      0.000000000000000E+000
   GDM::PreWSS: input subspace size is                  8
   GDM::PreWSS: working subspace size set to            8
   GDM::PrEWSS: # of linearly dependent vectors =            0
   GDM::PrEWSS: Max dev from orthonormality =   2.260393261455107E-012
   GDM::BFGS:   lowest Hinv e-value    0.101457355393090     
   GDM::BFGS:   highest Hinv e-value    19.9902927422677     
   GDM::      : max scaling in EWCs is          2.82842712474619     
   GDM::      : max rotation in step is       -0.771511243967882     
   GDM::        grad.step =   -1.50053635900695     
   ------- Leaving GDM -- hopefully with a step in the right direction! --------
 
    8    -656.8507206903      3.76E+00  Gap = 0.00 eV  Descent step
 
   ------------------- Entering Geometric Direct Minimization ------------------
   GDM::trust : actual energy change is        -1.98614410940763     
   GDM::trust : predicted energy change was   -0.332116282005018     
   GDM::trust : updated trust radius is        0.330000000000000     
   GDM:         diagonal hessian shift is      0.000000000000000E+000
   GDM::PreWSS: input subspace size is                  9
   GDM::PreWSS: working subspace size set to            9
   GDM::PrEWSS: # of linearly dependent vectors =            0
   GDM::PrEWSS: Max dev from orthonormality =   9.734955896956166E-013
   GDM::BFGS:   lowest Hinv e-value    0.141621545939947     
   GDM::BFGS:   highest Hinv e-value    17.1741708836642     
   GDM::      : max scaling in EWCs is          2.82842712474619     
   GDM::      : max rotation in step is        0.390054129888765     
   GDM::        grad.step =   -1.02997151895157     
   ------- Leaving GDM -- hopefully with a step in the right direction! --------
 
    9    -658.8368647997      1.85E+00  Gap = 0.00 eV  Descent step
 
   ------------------- Entering Geometric Direct Minimization ------------------
   GDM::trust : actual energy change is        -1.93704879745792     
   GDM::trust : predicted energy change was   -0.236595087227396     
   GDM::trust : updated trust radius is        0.330000000000000     
   GDM:         diagonal hessian shift is      0.000000000000000E+000
   GDM::PreWSS: input subspace size is                 10
   GDM::PreWSS: working subspace size set to           10
   GDM::PrEWSS: # of linearly dependent vectors =            0
   GDM::PrEWSS: Max dev from orthonormality =   2.359418216357767E-012
   GDM::BFGS:   lowest Hinv e-value    0.226989902931763     
   GDM::BFGS:   highest Hinv e-value    23.6290942172776     
   GDM::      : max scaling in EWCs is          2.82842712474619     
   GDM::      : max rotation in step is       -0.388706350985110     
   GDM::        grad.step =   -1.05676747450694     
   ------- Leaving GDM -- hopefully with a step in the right direction! --------
 
   10    -660.7739135971      1.59E+00  Gap = 0.00 eV  Descent step
 
   ------------------- Entering Geometric Direct Minimization ------------------
   GDM::trust : actual energy change is        -1.91897573244148     
   GDM::trust : predicted energy change was   -0.200638443562124     
   GDM::trust : updated trust radius is        0.330000000000000     
   GDM:         diagonal hessian shift is      0.000000000000000E+000
   GDM::PreWSS: input subspace size is                 11
   GDM::PreWSS: working subspace size set to           11
   GDM::PrEWSS: # of linearly dependent vectors =            0
   GDM::PrEWSS: Max dev from orthonormality =   9.311544590939747E-013
   GDM::BFGS:   lowest Hinv e-value    0.248442248761703     
   GDM::BFGS:   highest Hinv e-value    25.4173830958147     
   GDM::      : max scaling in EWCs is          2.82842712474619     
   GDM::      : max rotation in step is        0.106317616233244     
   GDM::        grad.step =  -0.926968057718603     
   ------- Leaving GDM -- hopefully with a step in the right direction! --------
 
   11    -662.6928893296      9.66E-01  Gap = 0.00 eV  Descent step
 
   ------------------- Entering Geometric Direct Minimization ------------------
   GDM::trust : actual energy change is        -1.88694556218252     
   GDM::trust : predicted energy change was   -0.184977105500845     
   GDM::trust : updated trust radius is        0.330000000000000     
   GDM:         diagonal hessian shift is      0.000000000000000E+000
   GDM::PreWSS: input subspace size is                 12
   GDM::PreWSS: working subspace size set to           12
   GDM::PrEWSS: # of linearly dependent vectors =            0
   GDM::PrEWSS: Max dev from orthonormality =   1.107870739591732E-012
   GDM::BFGS:   lowest Hinv e-value   -0.452180002840575     
   GDM::BFGS:   highest Hinv e-value    28.6976299764112     
   GDM::BFGS:   rebuilding Hinv to be positive definite
   GDM::      : max scaling in EWCs is          2.82842712474619     
   GDM::      : max rotation in step is        0.240261061027529     
   GDM::        grad.step =   -1.20214733817594     
   ------- Leaving GDM -- hopefully with a step in the right direction! --------
 
   12    -664.5798348918      1.73E+00  Gap = 0.00 eV  Descent step
 
   ------------------- Entering Geometric Direct Minimization ------------------
   GDM::trust : actual energy change is        -2.31699500705804     
   GDM::trust : predicted energy change was   -0.159286504037355     
   GDM::trust : updated trust radius is        0.330000000000000     
   GDM:         diagonal hessian shift is      0.000000000000000E+000
   GDM::PreWSS: input subspace size is                 13
   GDM::PreWSS: working subspace size set to           13
   GDM::PrEWSS: # of linearly dependent vectors =            0
   GDM::PrEWSS: Max dev from orthonormality =   4.544996323740946E-012
   GDM::BFGS:   lowest Hinv e-value    0.237544454629895     
   GDM::BFGS:   highest Hinv e-value    39.9963459837256     
   GDM::      : max scaling in EWCs is          2.82842712474619     
   GDM::      : max rotation in step is       -0.449654498024105     
   GDM::        grad.step =   -1.99431861687554     
   ------- Leaving GDM -- hopefully with a step in the right direction! --------
 
   13    -666.8968298988      3.74E+00  Gap = 0.00 eV  Descent step
 
   ------------------- Entering Geometric Direct Minimization ------------------
   GDM::trust : actual energy change is        -3.18032406547434     
   GDM::trust : predicted energy change was   -0.249217583228604     
   GDM::trust : updated trust radius is        0.330000000000000     
   GDM:         diagonal hessian shift is      0.000000000000000E+000
   GDM::PreWSS: input subspace size is                 14
   GDM::PreWSS: working subspace size set to           14
   GDM::PrEWSS: # of linearly dependent vectors =            0
   GDM::PrEWSS: Max dev from orthonormality =   1.067534949328319E-012
   GDM::BFGS:   lowest Hinv e-value    0.211429886913424     
   GDM::BFGS:   highest Hinv e-value    30.1281017704634     
   GDM::      : max scaling in EWCs is          2.82842712474619     
   GDM::      : max rotation in step is       -0.179856490407005     
   GDM::        grad.step =  -0.809452888037380     
   ------- Leaving GDM -- hopefully with a step in the right direction! --------
 
   14    -670.0771539643      7.58E-01  Gap = 0.00 eV  Descent step
 
   ------------------- Entering Geometric Direct Minimization ------------------
   GDM::trust : actual energy change is        -1.58232864749618     
   GDM::trust : predicted energy change was   -0.213566642698272     
   GDM::trust : updated trust radius is        0.330000000000000     
   GDM:         diagonal hessian shift is      0.000000000000000E+000
   GDM::PreWSS: input subspace size is                 15
   GDM::PreWSS: working subspace size set to           15
   GDM::PrEWSS: # of linearly dependent vectors =            0
   GDM::PrEWSS: Max dev from orthonormality =   1.770614904694767E-012
   GDM::BFGS:   lowest Hinv e-value    0.216564607080542     
   GDM::BFGS:   highest Hinv e-value    32.8059760646178     
   GDM::      : max scaling in EWCs is          2.82842712474619     
   GDM::      : max rotation in step is       -0.245824417273513     
   GDM::        grad.step =  -0.862031910827834     
   ------- Leaving GDM -- hopefully with a step in the right direction! --------
 
   15    -671.6594826118      6.88E-01  Gap = -916.05 eV  Descent step
 
   ------------------- Entering Geometric Direct Minimization ------------------
   GDM::trust : actual energy change is        -1.69773972897360     
   GDM::trust : predicted energy change was   -0.135643165571932     
   GDM::trust : updated trust radius is        0.330000000000000     
   GDM:         diagonal hessian shift is      0.000000000000000E+000
   GDM::PreWSS: input subspace size is                 16
   GDM::PreWSS: working subspace size set to           16
   GDM::PrEWSS: # of linearly dependent vectors =            0
   GDM::PrEWSS: Max dev from orthonormality =   2.139590588035034E-012
   GDM::BFGS:   lowest Hinv e-value    0.181518332759633     
   GDM::BFGS:   highest Hinv e-value    34.1347836774945     
   GDM::      : max scaling in EWCs is          2.82842712474619     
   GDM::      : max rotation in step is       -0.357362015989177     
   GDM::        grad.step =   -1.05697780592715     
   ------- Leaving GDM -- hopefully with a step in the right direction! --------
 
   16    -673.3572223408      1.42E+00  Gap = -916.05 eV  Descent step
 
   ------------------- Entering Geometric Direct Minimization ------------------
   GDM::trust : actual energy change is        -1.93692114258158     
   GDM::trust : predicted energy change was   -0.162060053339995     
   GDM::trust : updated trust radius is        0.330000000000000     
   GDM:         diagonal hessian shift is      0.000000000000000E+000
   GDM::PreWSS: input subspace size is                 17
   GDM::PreWSS: working subspace size set to           17
   GDM::PrEWSS: # of linearly dependent vectors =            0
   GDM::PrEWSS: Max dev from orthonormality =   3.172094531489478E-012
   GDM::BFGS:   lowest Hinv e-value    0.142086806327496     
   GDM::BFGS:   highest Hinv e-value    37.6657518416645     
   GDM::      : max scaling in EWCs is          2.82842712474619     
   GDM::      : max rotation in step is       -0.393522180641361     
   GDM::        grad.step =   -1.32469234775002     
   ------- Leaving GDM -- hopefully with a step in the right direction! --------
 
   17    -675.2941434833      1.78E+00  Gap = -916.05 eV  Descent step
 
   ------------------- Entering Geometric Direct Minimization ------------------
   GDM::trust : actual energy change is        -2.37991942258850     
   GDM::trust : predicted energy change was   -0.260596332638397     
   GDM::trust : updated trust radius is        0.330000000000000     
   GDM:         diagonal hessian shift is      0.000000000000000E+000
   GDM::PreWSS: input subspace size is                 18
   GDM::PreWSS: working subspace size set to           18
   GDM::PrEWSS: # of linearly dependent vectors =            0
   GDM::PrEWSS: Max dev from orthonormality =   4.325824420892133E-012
   GDM::BFGS:   lowest Hinv e-value    0.125980775942290     
   GDM::BFGS:   highest Hinv e-value    39.8866676471414     
   GDM::      : max scaling in EWCs is          2.82842712474619     
   GDM::      : max rotation in step is        0.519459175537716     
   GDM::        grad.step =   -1.26478448830166     
   ------- Leaving GDM -- hopefully with a step in the right direction! --------
 
   18    -677.6740629059      2.13E+00  Gap = -916.05 eV  Descent step
 
   ------------------- Entering Geometric Direct Minimization ------------------
   GDM::trust : actual energy change is        -2.28914578586091     
   GDM::trust : predicted energy change was   -0.271464642633682     
   GDM::trust : updated trust radius is        0.330000000000000     
   GDM:         diagonal hessian shift is      0.000000000000000E+000
   GDM::PreWSS: input subspace size is                 19
   GDM::PreWSS: working subspace size set to           18
   GDM::PrEWSS: # of linearly dependent vectors =            0
   GDM::PrEWSS: Max dev from orthonormality =   5.779241668557589E-012
   GDM::BFGS:   lowest Hinv e-value    0.161359088839262     
   GDM::BFGS:   highest Hinv e-value    39.9435224179664     
   GDM::      : max scaling in EWCs is          2.82842712474619     
   GDM::      : max rotation in step is        0.404638385961368     
   GDM::        grad.step =   -1.13559736746048     
   ------- Leaving GDM -- hopefully with a step in the right direction! --------
 
   19    -679.9632086918      1.75E+00  Gap = -916.05 eV  Descent step
 
   ------------------- Entering Geometric Direct Minimization ------------------
   GDM::trust : actual energy change is        -2.09718669088170     
   GDM::trust : predicted energy change was   -0.262037809817850     
   GDM::trust : updated trust radius is        0.330000000000000     
   GDM:         diagonal hessian shift is      0.000000000000000E+000
   GDM::PreWSS: input subspace size is                 19
   GDM::PreWSS: working subspace size set to           18
   GDM::PrEWSS: # of linearly dependent vectors =            0
   GDM::PrEWSS: Max dev from orthonormality =   1.172034691521162E-012
   GDM::BFGS:   lowest Hinv e-value    0.162955190095746     
   GDM::BFGS:   highest Hinv e-value    38.8411429977744     
   GDM::      : max scaling in EWCs is          2.82842712474619     
   GDM::      : max rotation in step is        0.205884395641353     
   GDM::        grad.step =   -1.01657852905186     
   ------- Leaving GDM -- hopefully with a step in the right direction! --------
 
   20    -682.0603953827      1.13E+00  Gap = -916.05 eV  Descent step
 
   ------------------- Entering Geometric Direct Minimization ------------------
   GDM::trust : actual energy change is        -1.99497970313007     
   GDM::trust : predicted energy change was   -0.197871257552390     
   GDM::trust : updated trust radius is        0.330000000000000     
   GDM:         diagonal hessian shift is      0.000000000000000E+000
   GDM::PreWSS: input subspace size is                 19
   GDM::PreWSS: working subspace size set to           18
   GDM::PrEWSS: # of linearly dependent vectors =            0
   GDM::PrEWSS: Max dev from orthonormality =   2.910290064495058E-012
   GDM::BFGS:   lowest Hinv e-value    0.143104714689626     
   GDM::BFGS:   highest Hinv e-value    40.0265350316223     
   GDM::      : max scaling in EWCs is          2.82842712474619     
   GDM::      : max rotation in step is        0.414214401836116     
   GDM::        grad.step =   -1.17433109347117     
   ------- Leaving GDM -- hopefully with a step in the right direction! --------
 
   21    -684.0553750858      1.62E+00  Gap = -916.05 eV  Descent step
 
   ------------------- Entering Geometric Direct Minimization ------------------
   GDM::trust : actual energy change is        -2.21515201449211     
   GDM::trust : predicted energy change was   -0.167775058523121     
   GDM::trust : updated trust radius is        0.330000000000000     
   GDM:         diagonal hessian shift is      0.000000000000000E+000
   GDM::PreWSS: input subspace size is                 19
   GDM::PreWSS: working subspace size set to           18
   GDM::PrEWSS: # of linearly dependent vectors =            0
   GDM::PrEWSS: Max dev from orthonormality =   2.266034582198984E-012
   GDM::BFGS:   lowest Hinv e-value    0.140711025006028     
   GDM::BFGS:   highest Hinv e-value    44.3346341277214     
   GDM::      : max scaling in EWCs is          2.82842712474619     
   GDM::      : max rotation in step is        0.517505736719050     
   GDM::        grad.step =   -1.22890668330298     
   ------- Leaving GDM -- hopefully with a step in the right direction! --------
 
   22    -686.2705271003      2.06E+00  Gap = -916.05 eV  Descent step
 
   ------------------- Entering Geometric Direct Minimization ------------------
   GDM::trust : actual energy change is        -2.14741180307465     
   GDM::trust : predicted energy change was   -0.240199446883206     
   GDM::trust : updated trust radius is        0.330000000000000     
   GDM:         diagonal hessian shift is      0.000000000000000E+000
   GDM::PreWSS: input subspace size is                 19
   GDM::PreWSS: working subspace size set to           18
   GDM::PrEWSS: # of linearly dependent vectors =            0
   GDM::PrEWSS: Max dev from orthonormality =   2.588467634678793E-012
   GDM::BFGS:   lowest Hinv e-value    0.194342839806136     
   GDM::BFGS:   highest Hinv e-value    68.9859789047084     
   GDM::      : max scaling in EWCs is          2.82842712474619     
   GDM::      : max rotation in step is        0.273626564207393     
   GDM::        grad.step =  -0.899469871128248     
   ------- Leaving GDM -- hopefully with a step in the right direction! --------
 
   23    -688.4179389034      9.50E-01  Gap = -916.05 eV  Descent step
 
   ------------------- Entering Geometric Direct Minimization ------------------
   GDM::trust : actual energy change is        -1.71573216911520     
   GDM::trust : predicted energy change was   -0.191800448199172     
   GDM::trust : updated trust radius is        0.330000000000000     
   GDM:         diagonal hessian shift is      0.000000000000000E+000
   GDM::PreWSS: input subspace size is                 19
   GDM::PreWSS: working subspace size set to           18
   GDM::PrEWSS: # of linearly dependent vectors =            0
   GDM::PrEWSS: Max dev from orthonormality =   7.504032117910953E-013
   GDM::BFGS:   lowest Hinv e-value    0.200293112254239     
   GDM::BFGS:   highest Hinv e-value    40.0382091888639     
   GDM::      : max scaling in EWCs is          2.82842712474619     
   GDM::      : max rotation in step is       -0.239853706343335     
   GDM::        grad.step =  -0.803066425413776     
   ------- Leaving GDM -- hopefully with a step in the right direction! --------
 
   24    -690.1336710725      9.80E-01  Gap = -916.05 eV  Descent step
 
   ------------------- Entering Geometric Direct Minimization ------------------
   GDM::trust : actual energy change is        -1.56931391261423     
   GDM::trust : predicted energy change was   -0.151194995454690     
   GDM::trust : updated trust radius is        0.330000000000000     
   GDM:         diagonal hessian shift is      0.000000000000000E+000
   GDM::PreWSS: input subspace size is                 19
   GDM::PreWSS: working subspace size set to           18
   GDM::PrEWSS: # of linearly dependent vectors =            0
   GDM::PrEWSS: Max dev from orthonormality =   8.720316135857331E-013
   GDM::BFGS:   lowest Hinv e-value    0.152595188527842     
   GDM::BFGS:   highest Hinv e-value    20.6998399824632     
   GDM::      : max scaling in EWCs is          2.82842712474619     
   GDM::      : max rotation in step is        0.209069288343614     
   GDM::        grad.step =  -0.813461801849212     
   ------- Leaving GDM -- hopefully with a step in the right direction! --------
 
   25    -691.7029849851      1.01E+00  Gap = -916.05 eV  Descent step
 
   ------------------- Entering Geometric Direct Minimization ------------------
   GDM::trust : actual energy change is        -1.58179043996313     
   GDM::trust : predicted energy change was   -0.139045028486327     
   GDM::trust : updated trust radius is        0.330000000000000     
   GDM:         diagonal hessian shift is      0.000000000000000E+000
   GDM::PreWSS: input subspace size is                 19
   GDM::PreWSS: working subspace size set to           18
   GDM::PrEWSS: # of linearly dependent vectors =            0
   GDM::PrEWSS: Max dev from orthonormality =   1.225637646928845E-012
   GDM::BFGS:   lowest Hinv e-value    0.146718004086199     
   GDM::BFGS:   highest Hinv e-value    21.6674071141188     
   GDM::      : max scaling in EWCs is          2.82842712474619     
   GDM::      : max rotation in step is        0.263181864798727     
   GDM::        grad.step =  -0.888720573975143     
   ------- Leaving GDM -- hopefully with a step in the right direction! --------
 
   26    -693.2847754251      1.12E+00  Gap = -916.05 eV  Descent step
 
   ------------------- Entering Geometric Direct Minimization ------------------
   GDM::trust : actual energy change is        -1.70922063581884     
   GDM::trust : predicted energy change was   -0.149476648493750     
   GDM::trust : updated trust radius is        0.330000000000000     
   GDM:         diagonal hessian shift is      0.000000000000000E+000
   GDM::PreWSS: input subspace size is                 19
   GDM::PreWSS: working subspace size set to           18
   GDM::PrEWSS: # of linearly dependent vectors =            0
   GDM::PrEWSS: Max dev from orthonormality =   1.013878217492881E-012
   GDM::BFGS:   lowest Hinv e-value    0.138791490749008     
   GDM::BFGS:   highest Hinv e-value    23.3441199732133     
   GDM::      : max scaling in EWCs is          2.82842712474619     
   GDM::      : max rotation in step is       -0.675536501610453     
   GDM::        grad.step =   -1.06140188533865     
   ------- Leaving GDM -- hopefully with a step in the right direction! --------
 
   27    -694.9939960609      2.33E+00  Gap = -916.05 eV  Descent step
 
   ------------------- Entering Geometric Direct Minimization ------------------
   GDM::trust : actual energy change is        -1.71568379509915     
   GDM::trust : predicted energy change was   -0.234040186361445     
   GDM::trust : updated trust radius is        0.330000000000000     
   GDM:         diagonal hessian shift is      0.000000000000000E+000
   GDM::PreWSS: input subspace size is                 19
   GDM::PreWSS: working subspace size set to           18
   GDM::PrEWSS: # of linearly dependent vectors =            0
   GDM::PrEWSS: Max dev from orthonormality =   1.183150799555222E-012
   GDM::BFGS:   lowest Hinv e-value    0.182661921148947     
   GDM::BFGS:   highest Hinv e-value    24.7446096468858     
   GDM::      : max scaling in EWCs is          2.82842712474619     
   GDM::      : max rotation in step is       -0.211643209365253     
   GDM::        grad.step =  -0.673563010907118     
   ------- Leaving GDM -- hopefully with a step in the right direction! --------
 
   28    -696.7096798560      5.99E-01  Gap = 0.00 eV  Descent step
 
   ------------------- Entering Geometric Direct Minimization ------------------
   GDM::trust : actual energy change is        -1.31849219015965     
   GDM::trust : predicted energy change was   -0.175638681457547     
   GDM::trust : updated trust radius is        0.330000000000000     
   GDM:         diagonal hessian shift is      0.000000000000000E+000
   GDM::PreWSS: input subspace size is                 19
   GDM::PreWSS: working subspace size set to           18
   GDM::PrEWSS: # of linearly dependent vectors =            0
   GDM::PrEWSS: Max dev from orthonormality =   9.691275559831070E-013
   GDM::BFGS:   lowest Hinv e-value    0.206140318510961     
   GDM::BFGS:   highest Hinv e-value    23.6933637783617     
   GDM::      : max scaling in EWCs is          2.82842712474619     
   GDM::      : max rotation in step is        0.215803501697539     
   GDM::        grad.step =  -0.711674073677112     
   ------- Leaving GDM -- hopefully with a step in the right direction! --------
 
   29    -698.0281720461      7.53E-01  Gap = 0.00 eV  Descent step
 
   ------------------- Entering Geometric Direct Minimization ------------------
   GDM::trust : actual energy change is        -1.37429660696046     
   GDM::trust : predicted energy change was   -0.132420701542277     
   GDM::trust : updated trust radius is        0.330000000000000     
   GDM:         diagonal hessian shift is      0.000000000000000E+000
   GDM::PreWSS: input subspace size is                 19
   GDM::PreWSS: working subspace size set to           18
   GDM::PrEWSS: # of linearly dependent vectors =            0
   GDM::PrEWSS: Max dev from orthonormality =   5.246705847561373E-013
   GDM::BFGS:   lowest Hinv e-value    0.192735623023675     
   GDM::BFGS:   highest Hinv e-value    22.2414313162716     
   GDM::      : max scaling in EWCs is          2.82842712474619     
   GDM::      : max rotation in step is        0.218160630923140     
   GDM::        grad.step =  -0.849273597176708     
   ------- Leaving GDM -- hopefully with a step in the right direction! --------
 
   30    -699.4024686531      9.83E-01  Gap = 0.00 eV  Descent step
 
   ------------------- Entering Geometric Direct Minimization ------------------
   GDM::trust : actual energy change is        -1.57325812168324     
   GDM::trust : predicted energy change was   -0.160707137611149     
   GDM::trust : updated trust radius is        0.330000000000000     
   GDM:         diagonal hessian shift is      0.000000000000000E+000
   GDM::PreWSS: input subspace size is                 19
   GDM::PreWSS: working subspace size set to           18
   GDM::PrEWSS: # of linearly dependent vectors =            0
   GDM::PrEWSS: Max dev from orthonormality =   4.673657294507194E-013
   GDM::BFGS:   lowest Hinv e-value    0.162556176113313     
   GDM::BFGS:   highest Hinv e-value    21.1636147748751     
   GDM::      : max scaling in EWCs is          2.82842712474619     
   GDM::      : max rotation in step is        0.463489700904140     
   GDM::        grad.step =  -0.915848275412715     
   ------- Leaving GDM -- hopefully with a step in the right direction! --------
 
   31    -700.9757267748      1.38E+00  Gap = 0.00 eV  Descent step
 
   ------------------- Entering Geometric Direct Minimization ------------------
   GDM::trust : actual energy change is        -1.63922869441774     
   GDM::trust : predicted energy change was   -0.206202773744850     
   GDM::trust : updated trust radius is        0.330000000000000     
   GDM:         diagonal hessian shift is      0.000000000000000E+000
   GDM::PreWSS: input subspace size is                 19
   GDM::PreWSS: working subspace size set to           18
   GDM::PrEWSS: # of linearly dependent vectors =            0
   GDM::PrEWSS: Max dev from orthonormality =   5.783568068906675E-013
   GDM::BFGS:   lowest Hinv e-value    0.159628259029532     
   GDM::BFGS:   highest Hinv e-value    21.4169502369670     
   GDM::      : max scaling in EWCs is          2.82842712474619     
   GDM::      : max rotation in step is        0.274179826691111     
   GDM::        grad.step =  -0.787066015455783     
   ------- Leaving GDM -- hopefully with a step in the right direction! --------
 
   32    -702.6149554692      1.05E+00  Gap = 0.00 eV  Descent step
 
   ------------------- Entering Geometric Direct Minimization ------------------
   GDM::trust : actual energy change is        -1.51093241200078     
   GDM::trust : predicted energy change was   -0.190496770369177     
   GDM::trust : updated trust radius is        0.330000000000000     
   GDM:         diagonal hessian shift is      0.000000000000000E+000
   GDM::PreWSS: input subspace size is                 19
   GDM::PreWSS: working subspace size set to           18
   GDM::PrEWSS: # of linearly dependent vectors =            0
   GDM::PrEWSS: Max dev from orthonormality =   5.501918365347080E-013
   GDM::BFGS:   lowest Hinv e-value    0.197494945035071     
   GDM::BFGS:   highest Hinv e-value    12.5976226925084     
   GDM::      : max scaling in EWCs is          2.82842712474619     
   GDM::      : max rotation in step is       -0.217521659650632     
   GDM::        grad.step =  -0.763130287431781     
   ------- Leaving GDM -- hopefully with a step in the right direction! --------
 
   33    -704.1258878812      9.56E-01  Gap = 0.00 eV  Descent step
 
   ------------------- Entering Geometric Direct Minimization ------------------
   GDM::trust : actual energy change is        -1.41382488461613     
   GDM::trust : predicted energy change was   -0.155810893528881     
   GDM::trust : updated trust radius is        0.330000000000000     
   GDM:         diagonal hessian shift is      0.000000000000000E+000
   GDM::PreWSS: input subspace size is                 19
   GDM::PreWSS: working subspace size set to           18
   GDM::PrEWSS: # of linearly dependent vectors =            0
   GDM::PrEWSS: Max dev from orthonormality =   1.010410505264403E-012
   GDM::BFGS:   lowest Hinv e-value    0.143129868688439     
   GDM::BFGS:   highest Hinv e-value    13.8595221694057     
   GDM::      : max scaling in EWCs is          2.82842712474619     
   GDM::      : max rotation in step is        0.319696026578720     
   GDM::        grad.step =  -0.817139688953028     
   ------- Leaving GDM -- hopefully with a step in the right direction! --------
 
   34    -705.5397127658      1.52E+00  Gap = 0.00 eV  Descent step
 
   ------------------- Entering Geometric Direct Minimization ------------------
   GDM::trust : actual energy change is        -1.54199344119058     
   GDM::trust : predicted energy change was   -0.161218797846837     
   GDM::trust : updated trust radius is        0.330000000000000     
   GDM:         diagonal hessian shift is      0.000000000000000E+000
   GDM::PreWSS: input subspace size is                 19
   GDM::PreWSS: working subspace size set to           18
   GDM::PrEWSS: # of linearly dependent vectors =            0
   GDM::PrEWSS: Max dev from orthonormality =   1.176919672829513E-012
   GDM::BFGS:   lowest Hinv e-value    0.100571208551494     
   GDM::BFGS:   highest Hinv e-value    13.6784156598473     
   GDM::      : max scaling in EWCs is          2.82842712474619     
   GDM::      : max rotation in step is        0.295255765935629     
   GDM::        grad.step =  -0.712584625232568     
   ------- Leaving GDM -- hopefully with a step in the right direction! --------
 
   35    -707.0817062070      1.60E+00  Gap = 0.00 eV  Descent step
 
   ------------------- Entering Geometric Direct Minimization ------------------
   GDM::trust : actual energy change is        -1.24870333799367     
   GDM::trust : predicted energy change was   -0.149582276126929     
   GDM::trust : updated trust radius is        0.330000000000000     
   GDM:         diagonal hessian shift is      0.000000000000000E+000
   GDM::PreWSS: input subspace size is                 19
   GDM::PreWSS: working subspace size set to           18
   GDM::PrEWSS: # of linearly dependent vectors =            0
   GDM::PrEWSS: Max dev from orthonormality =   5.108830025690736E-013
   GDM::BFGS:   lowest Hinv e-value    0.104533277572131     
   GDM::BFGS:   highest Hinv e-value    14.2354828790739     
   GDM::      : max scaling in EWCs is          2.82842712474619     
   GDM::      : max rotation in step is       -0.166378062758918     
   GDM::        grad.step =  -0.453081354466779     
   ------- Leaving GDM -- hopefully with a step in the right direction! --------
 
   36    -708.3304095450      5.64E-01  Gap = 0.00 eV  Descent step
 
   ------------------- Entering Geometric Direct Minimization ------------------
   GDM::trust : actual energy change is       -0.839010277620673     
   GDM::trust : predicted energy change was   -0.151001844894163     
   GDM::trust : updated trust radius is        0.330000000000000     
   GDM:         diagonal hessian shift is      0.000000000000000E+000
   GDM::PreWSS: input subspace size is                 19
   GDM::PreWSS: working subspace size set to           18
   GDM::PrEWSS: # of linearly dependent vectors =            0
   GDM::PrEWSS: Max dev from orthonormality =   4.919051277418873E-013
   GDM::BFGS:   lowest Hinv e-value    9.998154958060979E-002
   GDM::BFGS:   highest Hinv e-value    14.7540660172637     
   GDM::      : max scaling in EWCs is          2.82842712474619     
   GDM::      : max rotation in step is        0.434390334019588     
   GDM::        grad.step =  -0.461517664542016     
   ------- Leaving GDM -- hopefully with a step in the right direction! --------
 
   37    -709.1694198226      7.02E-01  Gap = 0.00 eV  Descent step
 
   ------------------- Entering Geometric Direct Minimization ------------------
   GDM::trust : actual energy change is       -0.852049600757141     
   GDM::trust : predicted energy change was   -0.141524263398897     
   GDM::trust : updated trust radius is        0.330000000000000     
   GDM:         diagonal hessian shift is      0.000000000000000E+000
   GDM::PreWSS: input subspace size is                 19
   GDM::PreWSS: working subspace size set to           18
   GDM::PrEWSS: # of linearly dependent vectors =            0
   GDM::PrEWSS: Max dev from orthonormality =   1.103606789287781E-012
   GDM::BFGS:   lowest Hinv e-value    8.681815659282596E-002
   GDM::BFGS:   highest Hinv e-value    13.6317193599681     
   GDM::      : max scaling in EWCs is          2.82842712474619     
   GDM::      : max rotation in step is        0.195398505594438     
   GDM::        grad.step =  -0.461928761331909     
   ------- Leaving GDM -- hopefully with a step in the right direction! --------
 
   38    -710.0214694234      7.89E-01  Gap = 0.00 eV  Descent step
 
   ------------------- Entering Geometric Direct Minimization ------------------
   GDM::trust : actual energy change is       -0.902682301285836     
   GDM::trust : predicted energy change was   -0.196420666371837     
   GDM::trust : updated trust radius is        0.330000000000000     
   GDM:         diagonal hessian shift is      0.000000000000000E+000
   GDM::PreWSS: input subspace size is                 19
   GDM::PreWSS: working subspace size set to           18
   GDM::PrEWSS: # of linearly dependent vectors =            0
   GDM::PrEWSS: Max dev from orthonormality =   6.005612673831706E-013
   GDM::BFGS:   lowest Hinv e-value    9.299012634151392E-002
   GDM::BFGS:   highest Hinv e-value    21.7247638213382     
   GDM::      : max scaling in EWCs is          2.82842712474619     
   GDM::      : max rotation in step is       -0.491844850569804     
   GDM::        grad.step =  -0.660002826266364     
   ------- Leaving GDM -- hopefully with a step in the right direction! --------
 
   39    -710.9241517247      1.36E+00  Gap = 0.00 eV  Descent step
 
   ------------------- Entering Geometric Direct Minimization ------------------
   GDM::trust : actual energy change is        -1.00777198445962     
   GDM::trust : predicted energy change was   -0.284019736023190     
   GDM::trust : updated trust radius is        0.330000000000000     
   GDM:         diagonal hessian shift is      0.000000000000000E+000
   GDM::PreWSS: input subspace size is                 19
   GDM::PreWSS: working subspace size set to           18
   GDM::PrEWSS: # of linearly dependent vectors =            0
   GDM::PrEWSS: Max dev from orthonormality =   5.290282101277910E-013
   GDM::BFGS:   lowest Hinv e-value    9.741613292678934E-002
   GDM::BFGS:   highest Hinv e-value    20.4628437722333     
   GDM::      : max scaling in EWCs is          2.82842712474619     
   GDM::      : max rotation in step is       -0.352455709594252     
   GDM::        grad.step =  -0.675739825706998     
   ------- Leaving GDM -- hopefully with a step in the right direction! --------
 
   40    -711.9319237091      1.23E+00  Gap = 0.00 eV  Descent step
 
   ------------------- Entering Geometric Direct Minimization ------------------
   GDM::trust : actual energy change is       -0.655215468649544     
   GDM::trust : predicted energy change was   -0.325316378933151     
   GDM::trust : updated trust radius is        0.330000000000000     
   GDM:         diagonal hessian shift is      0.000000000000000E+000
   GDM::PreWSS: input subspace size is                 19
   GDM::PreWSS: working subspace size set to           18
   GDM::PrEWSS: # of linearly dependent vectors =            0
   GDM::PrEWSS: Max dev from orthonormality =   8.024067521539280E-013
   GDM::BFGS:   lowest Hinv e-value    0.105435571432573     
   GDM::BFGS:   highest Hinv e-value    19.5973939199739     
   GDM::      : max scaling in EWCs is          2.82842712474619     
   GDM::      : max rotation in step is        0.344982174124064     
   GDM::        grad.step =  -0.601020808359905     
   ------- Leaving GDM -- hopefully with a step in the right direction! --------
 
   41    -712.5871391778      1.02E+00  Gap = 149244.85 eV  Descent step
 
   ------------------- Entering Geometric Direct Minimization ------------------
   GDM::trust : actual energy change is       -0.404202032443891     
   GDM::trust : predicted energy change was   -0.459959795273398     
   GDM::trust : updated trust radius is        0.330000000000000     
   GDM:         diagonal hessian shift is      0.000000000000000E+000
   GDM::PreWSS: input subspace size is                 19
   GDM::PreWSS: working subspace size set to           18
   GDM::PrEWSS: # of linearly dependent vectors =            0
   GDM::PrEWSS: Max dev from orthonormality =   3.139433157883786E-013
   GDM::BFGS:   lowest Hinv e-value    9.437865854048687E-002
   GDM::BFGS:   highest Hinv e-value    16.2915072385735     
   GDM::      : max scaling in EWCs is          2.82842712474619     
   GDM::      : max rotation in step is       -0.257635116008269     
   GDM::        grad.step =  -0.532259358847643     
   ------- Leaving GDM -- hopefully with a step in the right direction! --------
 
   42    -712.9913412102      7.40E-01  Gap = 149244.85 eV  Descent step
 
   ------------------- Entering Geometric Direct Minimization ------------------
   GDM::trust : actual energy change is       -0.483810104209169     
   GDM::trust : predicted energy change was   -0.453966506606428     
   GDM::trust : updated trust radius is        0.330000000000000     
   GDM:         diagonal hessian shift is      0.000000000000000E+000
   GDM::PreWSS: input subspace size is                 19
   GDM::PreWSS: working subspace size set to           18
   GDM::PrEWSS: # of linearly dependent vectors =            0
   GDM::PrEWSS: Max dev from orthonormality =   4.522146546115380E-013
   GDM::BFGS:   lowest Hinv e-value    0.122974957649620     
   GDM::BFGS:   highest Hinv e-value    16.8187268301487     
   GDM::      : max scaling in EWCs is          2.82842712474619     
   GDM::      : max rotation in step is        0.303757604617131     
   GDM::        grad.step =  -0.577094699006642     
   ------- Leaving GDM -- hopefully with a step in the right direction! --------
 
   43    -713.4751513144      9.23E-01  Gap = 149244.85 eV  Descent step
 
   ------------------- Entering Geometric Direct Minimization ------------------
   GDM::trust : actual energy change is       -0.728368169560895     
   GDM::trust : predicted energy change was   -0.291772499858081     
   GDM::trust : updated trust radius is        0.330000000000000     
   GDM:         diagonal hessian shift is      0.000000000000000E+000
   GDM::PreWSS: input subspace size is                 19
   GDM::PreWSS: working subspace size set to           18
   GDM::PrEWSS: # of linearly dependent vectors =            0
   GDM::PrEWSS: Max dev from orthonormality =   1.733255899916131E-012
   GDM::BFGS:   lowest Hinv e-value    9.224885729033459E-002
   GDM::BFGS:   highest Hinv e-value    17.3076884607353     
   GDM::      : max scaling in EWCs is          2.82842712474619     
   GDM::      : max rotation in step is        0.404826423752627     
   GDM::        grad.step =  -0.389892531811106     
   ------- Leaving GDM -- hopefully with a step in the right direction! --------
 
   44    -714.2035194840      5.94E-01  Gap = 149244.85 eV  Descent step
 
   ------------------- Entering Geometric Direct Minimization ------------------
   GDM::trust : actual energy change is       -0.283896506243877     
   GDM::trust : predicted energy change was   -0.320846384552523     
   GDM::trust : updated trust radius is        0.330000000000000     
   GDM:         diagonal hessian shift is      0.000000000000000E+000
   GDM::PreWSS: input subspace size is                 19
   GDM::PreWSS: working subspace size set to           18
   GDM::PrEWSS: # of linearly dependent vectors =            0
   GDM::PrEWSS: Max dev from orthonormality =   4.754911742121948E-013
   GDM::BFGS:   lowest Hinv e-value    0.147054564129987     
   GDM::BFGS:   highest Hinv e-value    14.8853150396964     
   GDM::      : max scaling in EWCs is          2.82842712474619     
   GDM::      : max rotation in step is        0.275169446087642     
   GDM::        grad.step =  -0.334977744036143     
   ------- Leaving GDM -- hopefully with a step in the right direction! --------
 
   45    -714.4874159902      3.77E-01  Gap = 149244.85 eV  Descent step
 
   ------------------- Entering Geometric Direct Minimization ------------------
   GDM::trust : actual energy change is       -0.272902592200126     
   GDM::trust : predicted energy change was   -0.319591693885828     
   GDM::trust : updated trust radius is        0.330000000000000     
   GDM:         diagonal hessian shift is      0.000000000000000E+000
   GDM::PreWSS: input subspace size is                 19
   GDM::PreWSS: working subspace size set to           18
   GDM::PrEWSS: # of linearly dependent vectors =            0
   GDM::PrEWSS: Max dev from orthonormality =   7.580394645323452E-013
   GDM::BFGS:   lowest Hinv e-value    0.120994197887601     
   GDM::BFGS:   highest Hinv e-value    17.2984823230527     
   GDM::      : max scaling in EWCs is          2.82842712474619     
   GDM::      : max rotation in step is       -0.276516770058133     
   GDM::        grad.step =  -0.329195311076842     
   ------- Leaving GDM -- hopefully with a step in the right direction! --------
 
   46    -714.7603185824      5.19E-01  Gap = 149244.85 eV  Descent step
 
   ------------------- Entering Geometric Direct Minimization ------------------
   GDM::trust : actual energy change is       -0.279744771198580     
   GDM::trust : predicted energy change was   -0.349804486205741     
   GDM::trust : updated trust radius is        0.330000000000000     
   GDM:         diagonal hessian shift is      0.000000000000000E+000
   GDM::PreWSS: input subspace size is                 19
   GDM::PreWSS: working subspace size set to           18
   GDM::PrEWSS: # of linearly dependent vectors =            0
   GDM::PrEWSS: Max dev from orthonormality =   2.079655891940035E-013
   GDM::BFGS:   lowest Hinv e-value    0.131674623906890     
   GDM::BFGS:   highest Hinv e-value    13.9715562728459     
   GDM::      : max scaling in EWCs is          2.82842712474619     
   GDM::      : max rotation in step is       -0.325640246417361     
   GDM::        grad.step =  -0.409207293832188     
   ------- Leaving GDM -- hopefully with a step in the right direction! --------
 
   47    -715.0400633536      9.45E-01  Gap = 149244.85 eV  Descent step
 
   ------------------- Entering Geometric Direct Minimization ------------------
   GDM::trust : actual energy change is       -0.552473774404461     
   GDM::trust : predicted energy change was   -0.313310748674677     
   GDM::trust : updated trust radius is        0.330000000000000     
   GDM:         diagonal hessian shift is      0.000000000000000E+000
   GDM::PreWSS: input subspace size is                 19
   GDM::PreWSS: working subspace size set to           18
   GDM::PrEWSS: # of linearly dependent vectors =            0
   GDM::PrEWSS: Max dev from orthonormality =   5.003011893656151E-013
   GDM::BFGS:   lowest Hinv e-value    0.153846240002628     
   GDM::BFGS:   highest Hinv e-value    17.5133707841856     
   GDM::      : max scaling in EWCs is          2.82842712474619     
   GDM::      : max rotation in step is       -0.295945960384709     
   GDM::        grad.step =  -0.341050289998001     
   ------- Leaving GDM -- hopefully with a step in the right direction! --------
 
   48    -715.5925371280      5.63E-01  Gap = 149244.85 eV  Descent step
 
   ------------------- Entering Geometric Direct Minimization ------------------
   GDM::trust : actual energy change is       -0.428171898565438     
   GDM::trust : predicted energy change was   -0.171967058953009     
   GDM::trust : updated trust radius is        0.330000000000000     
   GDM:         diagonal hessian shift is      0.000000000000000E+000
   GDM::PreWSS: input subspace size is                 19
   GDM::PreWSS: working subspace size set to           18
   GDM::PrEWSS: # of linearly dependent vectors =            0
   GDM::PrEWSS: Max dev from orthonormality =   1.519825931772800E-013
   GDM::BFGS:   lowest Hinv e-value    0.194652485656071     
   GDM::BFGS:   highest Hinv e-value    14.7460101988108     
   GDM::      : max scaling in EWCs is          2.82842712474619     
   GDM::      : max rotation in step is       -0.241124462670539     
   GDM::        grad.step =  -0.155764694297221     
   ------- Leaving GDM -- hopefully with a step in the right direction! --------
 
   49    -716.0207090266      1.41E-01  Gap = 149244.85 eV  Descent step
 
   ------------------- Entering Geometric Direct Minimization ------------------
   GDM::trust : actual energy change is       -0.139684063193840     
   GDM::trust : predicted energy change was   -0.185280951388542     
   GDM::trust : updated trust radius is        0.330000000000000     
   GDM:         diagonal hessian shift is      0.000000000000000E+000
   GDM::PreWSS: input subspace size is                 19
   GDM::PreWSS: working subspace size set to           18
   GDM::PrEWSS: # of linearly dependent vectors =            0
   GDM::PrEWSS: Max dev from orthonormality =   2.029661161362384E-013
   GDM::BFGS:   lowest Hinv e-value    0.162763991393954     
   GDM::BFGS:   highest Hinv e-value    20.5732090296760     
   GDM::      : max scaling in EWCs is          2.82842712474619     
   GDM::      : max rotation in step is        0.429991110130785     
   GDM::        grad.step =  -0.163587258520100     
   ------- Leaving GDM -- hopefully with a step in the right direction! --------
 
   50    -716.1603930898      2.38E-01  Gap = 149244.85 eV  Descent step
 
   ------------------- Entering Geometric Direct Minimization ------------------
   GDM::trust : actual energy change is       -6.154609094778607E-003
   GDM::trust : predicted energy change was   -0.326336696589123     
   GDM::trust : updated trust radius is        0.330000000000000     
   GDM:         diagonal hessian shift is      0.000000000000000E+000
   GDM::PreWSS: input subspace size is                 19
   GDM::PreWSS: working subspace size set to           18
   GDM::PrEWSS: # of linearly dependent vectors =            0
   GDM::PrEWSS: Max dev from orthonormality =   9.370282327836321E-014
   GDM::BFGS:   lowest Hinv e-value    0.199750775375028     
   GDM::BFGS:   highest Hinv e-value    12.2217673240972     
   GDM::      : max scaling in EWCs is          2.82842712474619     
   GDM::      : max rotation in step is       -0.360524096426242     
   GDM::        grad.step =  -0.230636606809781     
   ------- Leaving GDM -- hopefully with a step in the right direction! --------
 
   51    -716.1665476989      3.57E-01  Gap = 149244.85 eV  Descent step
 
   ------------------- Entering Geometric Direct Minimization ------------------
   GDM::trust : actual energy change is        7.528040884130860E-002
   GDM::trust : predicted energy change was   -0.326053449595027     
   GDM::trust : updated trust radius is        0.108900000000000     
   GDM::search:  On step            1 .  The current bracket is:
       left   : x =  0.0000E+00, e =      -716.1665476989, g = -0.3965E+00
       current: x =  0.5817E+00, e =      -716.0912672900, g =  0.5677E+00
       right  : x =  0.1000E+04, e =      1000.0000000000, g =  0.1000E+04
       next   : x =  0.2193E+00
   GDM::      : max rotation in step is       -0.135902957368914     
   ------- Leaving GDM -- hopefully with a step in the right direction! --------
 
   52    -716.0912672900      2.00E-01  Gap = 149244.85 eV  Line search: overstep
 
   ------------------- Entering Geometric Direct Minimization ------------------
   GDM::trust : actual energy change is       -0.105236069877947     
   GDM::trust : predicted energy change was   -0.326053449595027     
   GDM::trust : updated trust radius is        0.108900000000000     
   GDM:         diagonal hessian shift is      0.000000000000000E+000
   GDM::PreWSS: input subspace size is                 19
   GDM::PreWSS: working subspace size set to           18
   GDM::PrEWSS: # of linearly dependent vectors =            0
   GDM::PrEWSS: Max dev from orthonormality =   9.214157214998409E-014
   GDM::BFGS:   lowest Hinv e-value    9.836814310735922E-002
   GDM::BFGS:   highest Hinv e-value    21.6194512096132     
   GDM::      : max scaling in EWCs is          2.82842712474619     
   GDM::      : max rotation in step is       -0.173939858660519     
   GDM::        grad.step =  -4.837696369019753E-002
   ------- Leaving GDM -- hopefully with a step in the right direction! --------
 
   53    -716.2717837688      2.51E-01  Gap = -148.12 eV  Descent step
 
   ------------------- Entering Geometric Direct Minimization ------------------
   GDM::trust : actual energy change is       -2.116499829094209E-002
   GDM::trust : predicted energy change was   -2.902554141343680E-002
   GDM::trust : updated trust radius is        0.330000000000000     
   GDM:         diagonal hessian shift is      0.000000000000000E+000
   GDM::PreWSS: input subspace size is                 19
   GDM::PreWSS: working subspace size set to           18
   GDM::PrEWSS: # of linearly dependent vectors =            0
   GDM::PrEWSS: Max dev from orthonormality =   1.035335012167238E-013
   GDM::BFGS:   lowest Hinv e-value    8.225627519893325E-002
   GDM::BFGS:   highest Hinv e-value    19.7633484555719     
   GDM::      : max scaling in EWCs is          2.82842712474619     
   GDM::      : max rotation in step is       -0.530677599249016     
   GDM::        grad.step =  -0.212475979901829     
   ------- Leaving GDM -- hopefully with a step in the right direction! --------
 
   54    -716.2929487671      3.66E-01  Gap = -148.12 eV  Descent step
 
   ------------------- Entering Geometric Direct Minimization ------------------
   GDM::trust : actual energy change is        0.725505202744785     
   GDM::trust : predicted energy change was   -0.711412489247069     
   GDM::trust : updated trust radius is        0.108900000000000     
   GDM::search:  On step            1 .  The current bracket is:
       left   : x =  0.0000E+00, e =      -716.2929487671, g = -0.2628E+00
       current: x =  0.8086E+00, e =      -715.5674435643, g =  0.8652E+00
       right  : x =  0.1000E+04, e =      1000.0000000000, g =  0.1000E+04
       next   : x =  0.9159E-01
   GDM::      : max rotation in step is       -6.010581288754155E-002
   ------- Leaving GDM -- hopefully with a step in the right direction! --------
 
   55    -715.5674435643      1.22E-01  Gap = -148.12 eV  Line search: overstep
 
   ------------------- Entering Geometric Direct Minimization ------------------
   GDM::trust : actual energy change is       -3.267616593529965E-002
   GDM::trust : predicted energy change was   -0.711412489247069     
   GDM::trust : updated trust radius is        0.108900000000000     
   GDM:         diagonal hessian shift is      0.000000000000000E+000
   GDM::PreWSS: input subspace size is                 19
   GDM::PreWSS: working subspace size set to           18
   GDM::PrEWSS: # of linearly dependent vectors =            0
   GDM::PrEWSS: Max dev from orthonormality =   7.512046540369965E-014
   GDM::BFGS:   lowest Hinv e-value    6.501823404584040E-002
   GDM::BFGS:   highest Hinv e-value    20.5087303450088     
   GDM::      : max scaling in EWCs is          2.82842712474619     
   GDM::      : max rotation in step is       -0.228427170601410     
   GDM::        grad.step =  -3.130693341767816E-002
   ------- Leaving GDM -- hopefully with a step in the right direction! --------
 
   56    -716.3256249330      2.13E-01  Gap = -148.12 eV  Descent step
 
   ------------------- Entering Geometric Direct Minimization ------------------
   GDM::trust : actual energy change is        5.235252889826825E-002
   GDM::trust : predicted energy change was   -6.003389432337723E-002
   GDM::trust : updated trust radius is        0.108900000000000     
   GDM::search:  On step            1 .  The current bracket is:
       left   : x =  0.0000E+00, e =      -716.3256249330, g = -0.1153E+00
       current: x =  0.2716E+00, e =      -716.2732724041, g =  0.3175E+00
       right  : x =  0.1000E+04, e =      1000.0000000000, g =  0.1000E+04
       next   : x =  0.5081E-01
   GDM::      : max rotation in step is       -4.274085693856903E-002
   ------- Leaving GDM -- hopefully with a step in the right direction! --------
 
   57    -716.2732724041      3.74E-02  Gap = -148.12 eV  Line search: overstep
 
   ------------------- Entering Geometric Direct Minimization ------------------
   GDM::trust : actual energy change is       -7.986104692349727E-003
   GDM::trust : predicted energy change was   -6.003389432337723E-002
   GDM::trust : updated trust radius is        0.108900000000000     
   GDM:         diagonal hessian shift is      0.000000000000000E+000
   GDM::PreWSS: input subspace size is                 19
   GDM::PreWSS: working subspace size set to           18
   GDM::PrEWSS: # of linearly dependent vectors =            0
   GDM::PrEWSS: Max dev from orthonormality =   3.969435891093553E-012
   GDM::BFGS:   lowest Hinv e-value    6.060643811347591E-002
   GDM::BFGS:   highest Hinv e-value    18.8923364069273     
   GDM::      : max scaling in EWCs is          2.82842712474619     
   GDM::      : max rotation in step is       -0.122163647030983     
   GDM::        grad.step =  -2.032104658080546E-002
   ------- Leaving GDM -- hopefully with a step in the right direction! --------
 
   58    -716.3336110377      7.40E-02  Gap = -148.12 eV  Descent step
 
   ------------------- Entering Geometric Direct Minimization ------------------
   GDM::trust : actual energy change is       -2.396530052669732E-002
   GDM::trust : predicted energy change was   -1.988028390632555E-002
   GDM::trust : updated trust radius is        0.330000000000000     
   GDM:         diagonal hessian shift is      0.000000000000000E+000
   GDM::PreWSS: input subspace size is                 19
   GDM::PreWSS: working subspace size set to           18
   GDM::PrEWSS: # of linearly dependent vectors =            0
   GDM::PrEWSS: Max dev from orthonormality =   6.051253248484656E-013
   GDM::BFGS:   lowest Hinv e-value    6.404089715429477E-002
   GDM::BFGS:   highest Hinv e-value    5.47957649166592     
   GDM::      : max scaling in EWCs is          2.82842712474619     
   GDM::      : max rotation in step is       -0.345138353556567     
   GDM::        grad.step =  -3.884103810672471E-002
   ------- Leaving GDM -- hopefully with a step in the right direction! --------
 
   59    -716.3575763382      2.47E-01  Gap = -148.12 eV  Normal BFGS step
 
   ------------------- Entering Geometric Direct Minimization ------------------
   GDM::trust : actual energy change is        8.370337208759793E-002
   GDM::trust : predicted energy change was   -5.826155716008710E-002
   GDM::trust : updated trust radius is        0.108900000000000     
   GDM::search:  On step            1 .  The current bracket is:
       left   : x =  0.0000E+00, e =      -716.3575763382, g = -0.6068E-01
       current: x =  0.6401E+00, e =      -716.2738729661, g =  0.2028E+00
       right  : x =  0.1000E+04, e =      1000.0000000000, g =  0.1000E+04
       next   : x =  0.1014E+00
   GDM::      : max rotation in step is       -5.469662761983703E-002
   ------- Leaving GDM -- hopefully with a step in the right direction! --------
 
   60    -716.2738729661      3.13E-02  Gap = -148.12 eV  Line search: overstep
 
   ------------------- Entering Geometric Direct Minimization ------------------
   GDM::trust : actual energy change is       -8.798832097454579E-003
   GDM::trust : predicted energy change was   -5.826155716008710E-002
   GDM::trust : updated trust radius is        0.108900000000000     
   GDM:         diagonal hessian shift is      0.000000000000000E+000
   GDM::PreWSS: input subspace size is                 19
   GDM::PreWSS: working subspace size set to           18
   GDM::PrEWSS: # of linearly dependent vectors =            0
   GDM::PrEWSS: Max dev from orthonormality =   5.817915593731016E-012
   GDM::BFGS:   lowest Hinv e-value    6.443985534453910E-002
   GDM::BFGS:   highest Hinv e-value    5.55990426206435     
   GDM::      : max scaling in EWCs is          2.82842712474619     
   GDM::      : max rotation in step is       -0.160090379045196     
   GDM::        grad.step =  -2.510841579313233E-002
   ------- Leaving GDM -- hopefully with a step in the right direction! --------
 
   61    -716.3663751703      1.20E-01  Gap = -148.12 eV  Descent step
 
   ------------------- Entering Geometric Direct Minimization ------------------
   GDM::trust : actual energy change is        0.123432168494219     
   GDM::trust : predicted energy change was   -7.454384777166895E-002
   GDM::trust : updated trust radius is        0.108900000000000     
   GDM::search:  On step            1 .  The current bracket is:
       left   : x =  0.0000E+00, e =      -716.3663751703, g = -0.9181E-01
       current: x =  0.2735E+00, e =      -716.2429430018, g =  0.5290E+00
       right  : x =  0.1000E+04, e =      1000.0000000000, g =  0.1000E+04
       next   : x =  0.2735E-01
   GDM::      : max rotation in step is       -1.600903790451959E-002
   ------- Leaving GDM -- hopefully with a step in the right direction! --------
 
   62    -716.2429430018      9.09E-02  Gap = -148.12 eV  Line search: overstep
 
   ------------------- Entering Geometric Direct Minimization ------------------
   GDM::trust : actual energy change is       -3.274635257753289E-003
   GDM::trust : predicted energy change was   -7.454384777166895E-002
   GDM::trust : updated trust radius is        0.108900000000000     
   GDM:         diagonal hessian shift is      0.000000000000000E+000
   GDM::PreWSS: input subspace size is                 19
   GDM::PreWSS: working subspace size set to           18
   GDM::PrEWSS: # of linearly dependent vectors =            0
   GDM::PrEWSS: Max dev from orthonormality =   1.983406494598938E-012
   GDM::BFGS:   lowest Hinv e-value    5.687606489236924E-002
   GDM::BFGS:   highest Hinv e-value    3.98463781329519     
   GDM::trust : dogleg step length is          0.108900000000000     
   GDM::      : max scaling in EWCs is          2.82842712474619     
   GDM::      : max rotation in step is       -9.016673170540244E-002
   GDM::        grad.step =  -1.004585321901293E-002
   ------- Leaving GDM -- hopefully with a step in the right direction! --------
 
   63    -716.3696498056      3.09E-02  Gap = -148.12 eV  Dog-leg BFGS step
 
   ------------------- Entering Geometric Direct Minimization ------------------
   GDM::trust : actual energy change is        1.372529641150777E-002
   GDM::trust : predicted energy change was   -2.351533342417057E-002
   GDM::trust : updated trust radius is        3.593700000000000E-002
   GDM::search:  On step            1 .  The current bracket is:
       left   : x =  0.0000E+00, e =      -716.3696498056, g = -0.5667E-01
       current: x =  0.1773E+00, e =      -716.3559245092, g =  0.1297E+00
       right  : x =  0.1000E+04, e =      1000.0000000000, g =  0.1000E+04
       next   : x =  0.3746E-01
   GDM::      : max rotation in step is       -1.905254407190300E-002
   ------- Leaving GDM -- hopefully with a step in the right direction! --------
 
   64    -716.3559245092      2.06E-02  Gap = -148.12 eV  Line search: overstep
 
   ------------------- Entering Geometric Direct Minimization ------------------
   GDM::trust : actual energy change is       -2.686722814701170E-003
   GDM::trust : predicted energy change was   -2.351533342417057E-002
   GDM::trust : updated trust radius is        3.593700000000000E-002
   GDM:         diagonal hessian shift is      0.000000000000000E+000
   GDM::PreWSS: input subspace size is                 19
   GDM::PreWSS: working subspace size set to           18
   GDM::PrEWSS: # of linearly dependent vectors =            0
   GDM::PrEWSS: Max dev from orthonormality =   7.135675730851609E-012
   GDM::BFGS:   lowest Hinv e-value    6.971661546674197E-002
   GDM::BFGS:   highest Hinv e-value    4.06900997203728     
   GDM::      : max scaling in EWCs is          2.82842712474619     
   GDM::      : max rotation in step is       -8.466847412401031E-002
   GDM::        grad.step =  -3.305335970135878E-003
   ------- Leaving GDM -- hopefully with a step in the right direction! --------
 
   65    -716.3723365284      7.66E-02  Gap = -148.12 eV  Descent step
 
   ------------------- Entering Geometric Direct Minimization ------------------
   GDM::trust : actual energy change is        5.762984358739232E-003
   GDM::trust : predicted energy change was   -6.665809225057042E-003
   GDM::trust : updated trust radius is        0.108900000000000     
   GDM::search:  On step            1 .  The current bracket is:
       left   : x =  0.0000E+00, e =      -716.3723365284, g = -0.3579E-01
       current: x =  0.9235E-01, e =      -716.3665735440, g =  0.9705E-01
       right  : x =  0.1000E+04, e =      1000.0000000000, g =  0.1000E+04
       next   : x =  0.1683E-01
   GDM::      : max rotation in step is       -1.543051761016284E-002
   ------- Leaving GDM -- hopefully with a step in the right direction! --------
 
   66    -716.3665735440      3.37E-02  Gap = -148.12 eV  Line search: overstep
 
   ------------------- Entering Geometric Direct Minimization ------------------
   GDM::trust : actual energy change is       -7.897982155782302E-004
   GDM::trust : predicted energy change was   -6.665809225057042E-003
   GDM::trust : updated trust radius is        0.108900000000000     
   GDM:         diagonal hessian shift is      0.000000000000000E+000
   GDM::PreWSS: input subspace size is                 19
   GDM::PreWSS: working subspace size set to           18
[...]
   GDM::BFGS:   highest Hinv e-value    1.41312644100833     
   GDM::      : max scaling in EWCs is          2.10223612800794     
   GDM::      : max rotation in step is        1.258335225529795E-005
   GDM::        grad.step =  -2.394570999806523E-009
   ------- Leaving GDM -- hopefully with a step in the right direction! --------
 
    9    -717.2363577586      1.97E-05  Gap = 27.21 eV  Normal BFGS step
 
   ------------------- Entering Geometric Direct Minimization ------------------
   GDM::trust : actual energy change is       -2.176989255531225E-009
   GDM::trust : predicted energy change was   -3.591856499709784E-009
   GDM::trust : updated trust radius is        0.330000000000000     
   GDM:         diagonal hessian shift is      0.000000000000000E+000
   GDM::PreWSS: input subspace size is                  9
   GDM::PreWSS: working subspace size set to            9
   GDM::PrEWSS: # of linearly dependent vectors =            8
   GDM::PrEWSS: Max dev from orthonormality =   3.275157922644212E-014
   GDM::BFGS:   lowest Hinv e-value    0.225138076824748     
   GDM::BFGS:   highest Hinv e-value    1.48535693654346     
   GDM::      : max scaling in EWCs is          2.10231758678575     
   GDM::      : max rotation in step is        7.382102646887238E-006
   GDM::        grad.step =  -1.720205314942733E-010
   ------- Leaving GDM -- hopefully with a step in the right direction! --------
 
   10    -717.2363577608      4.51E-06  Gap = 27.21 eV  Normal BFGS step
 
   ------------------- Entering Geometric Direct Minimization ------------------
   GDM::trust : actual energy change is        3.262812242610380E-011
   GDM::trust : predicted energy change was   -2.580307972414100E-010
   GDM::trust : updated trust radius is        0.108900000000000     
   GDM::WARNING energy changes are now smaller than effective accuracy.
   GDM::        calculation will continue, but THRESH should be increased
   GDM::        or SCF_CONVERGENCE decreased.
   GDM::        effective_thresh =   3.200000000000000E-010
   GDM:         diagonal hessian shift is      0.000000000000000E+000
   GDM::PreWSS: input subspace size is                 10
   GDM::PreWSS: working subspace size set to           10
   GDM::PrEWSS: # of linearly dependent vectors =            9
   GDM::PrEWSS: Max dev from orthonormality =   2.485789352135725E-013
   GDM::BFGS:   lowest Hinv e-value    0.225531623868199     
   GDM::BFGS:   highest Hinv e-value    1.38519775063538     
   GDM::      : max scaling in EWCs is          2.10230312717027     
   GDM::      : max rotation in step is       -4.172453465210011E-006
   GDM::        grad.step =  -1.247320816154136E-010
   ------- Leaving GDM -- hopefully with a step in the right direction! --------
 
   11    -717.2363577607      5.66E-06  Gap = 27.21 eV  Normal BFGS step
 
   ------------------- Entering Geometric Direct Minimization ------------------
   GDM::trust : actual energy change is       -1.208491084980778E-010
   GDM::trust : predicted energy change was   -1.870981224231204E-010
   GDM::trust : updated trust radius is        0.330000000000000     
   GDM:         diagonal hessian shift is      0.000000000000000E+000
   GDM::PreWSS: input subspace size is                 11
   GDM::PreWSS: working subspace size set to           11
   GDM::PrEWSS: # of linearly dependent vectors =           10
   GDM::PrEWSS: Max dev from orthonormality =   7.904787935331115E-013
   GDM::BFGS:   lowest Hinv e-value    0.225586152076471     
   GDM::BFGS:   highest Hinv e-value    1.39717129256920     
   GDM::      : max scaling in EWCs is          2.10230954289377     
   GDM::      : max rotation in step is       -2.424078361679910E-007
   GDM::        grad.step =  -2.568797184649877E-012
   ------- Leaving GDM -- hopefully with a step in the right direction! --------
 
   12    -717.2363577609      3.83E-07  Gap = 27.21 eV  Normal BFGS step
 
   ------------------- Entering Geometric Direct Minimization ------------------
   GDM::trust : actual energy change is       -1.250555214937776E-012
   GDM::trust : predicted energy change was   -3.853195776974815E-012
   GDM::trust : updated trust radius is        0.330000000000000     
   GDM:         diagonal hessian shift is      0.000000000000000E+000
   GDM::PreWSS: input subspace size is                 12
   GDM::PreWSS: working subspace size set to           12
   GDM::PrEWSS: # of linearly dependent vectors =           11
   GDM::PrEWSS: Max dev from orthonormality =   1.969174823202025E-012
   GDM::BFGS:   lowest Hinv e-value    0.224875154727369     
   GDM::BFGS:   highest Hinv e-value    1.38638158245282     
   GDM::      : max scaling in EWCs is          2.10230912374125     
   GDM::      : max rotation in step is        3.350210850150129E-007
   GDM::        grad.step =  -1.428347535984193E-012
   ------- Leaving GDM -- hopefully with a step in the right direction! --------
 
   13    -717.2363577609      5.34E-07  Gap = 27.21 eV  Normal BFGS step
 
   ------------------- Entering Geometric Direct Minimization ------------------
   GDM::trust : actual energy change is       -2.273736754432321E-013
   GDM::trust : predicted energy change was   -2.142521303976289E-012
   GDM::trust : updated trust radius is        0.330000000000000     
   GDM:         diagonal hessian shift is      0.000000000000000E+000
   GDM::PreWSS: input subspace size is                 13
   GDM::PreWSS: working subspace size set to           13
   GDM::PrEWSS: # of linearly dependent vectors =           12
   GDM::PrEWSS: Max dev from orthonormality =   5.601352714990071E-013
   GDM::BFGS:   lowest Hinv e-value    0.225771796064809     
   GDM::BFGS:   highest Hinv e-value    1.41689778463321     
   GDM::      : max scaling in EWCs is          2.10230911143926     
   GDM::      : max rotation in step is       -2.344101226019760E-007
   GDM::        grad.step =  -8.670010940230318E-013
   ------- Leaving GDM -- hopefully with a step in the right direction! --------
 
   14    -717.2363577609      5.24E-07  Gap = 27.21 eV  Normal BFGS step
 
   ------------------- Entering Geometric Direct Minimization ------------------
   GDM::trust : actual energy change is       -1.250555214937776E-012
   GDM::trust : predicted energy change was   -1.300501641034548E-012
   GDM::trust : updated trust radius is        0.330000000000000     
   GDM:         diagonal hessian shift is      0.000000000000000E+000
   GDM::PreWSS: input subspace size is                 14
   GDM::PreWSS: working subspace size set to           14
   GDM::PrEWSS: # of linearly dependent vectors =           13
   GDM::PrEWSS: Max dev from orthonormality =   1.468947186111791E-011
   GDM::BFGS:   lowest Hinv e-value    0.225053138138049     
   GDM::BFGS:   highest Hinv e-value    1.37183210066439     
   GDM::      : max scaling in EWCs is          2.10230925833184     
   GDM::      : max rotation in step is       -8.497767254129014E-008
   GDM::        grad.step =  -2.890948213742370E-013
   ------- Leaving GDM -- hopefully with a step in the right direction! --------
 
   15    -717.2363577609      1.33E-07  Gap = 27.21 eV  Normal BFGS step
 
   ------------------- Entering Geometric Direct Minimization ------------------
   GDM::trust : actual energy change is        6.821210263296962E-013
   GDM::trust : predicted energy change was   -4.336422320613557E-013
   GDM::trust : updated trust radius is        0.108900000000000     
   GDM::WARNING energy changes are now smaller than effective accuracy.
   GDM::        calculation will continue, but THRESH should be increased
   GDM::        or SCF_CONVERGENCE decreased.
   GDM::        effective_thresh =   3.200000000000000E-010
   GDM:         diagonal hessian shift is      0.000000000000000E+000
   GDM::PreWSS: input subspace size is                 15
   GDM::PreWSS: working subspace size set to           15
   GDM::PrEWSS: # of linearly dependent vectors =           14
   GDM::PrEWSS: Max dev from orthonormality =   1.460918400142397E-010
   GDM::BFGS:   lowest Hinv e-value    0.225363960791432     
   GDM::BFGS:   highest Hinv e-value    1.37112776336195     
   GDM::      : max scaling in EWCs is          2.10230922574382     
   GDM::      : max rotation in step is        1.120150236060635E-008
   GDM::        grad.step =  -1.082650849831990E-014
   ------- Leaving GDM -- hopefully with a step in the right direction! --------
 
   16    -717.2363577609      2.65E-08  Gap = 27.21 eV  Normal BFGS step
 
   ------------------- Entering Geometric Direct Minimization ------------------
   GDM::trust : actual energy change is       -4.547473508864641E-013
   GDM::trust : predicted energy change was   -1.623976274747985E-014
   GDM::trust : updated trust radius is        0.330000000000000     
   GDM:         diagonal hessian shift is      0.000000000000000E+000
   GDM::PreWSS: input subspace size is                 16
   GDM::PreWSS: working subspace size set to           16
   GDM::PrEWSS: # of linearly dependent vectors =           15
   GDM::PrEWSS: Max dev from orthonormality =   1.736374308225486E-010
   GDM::BFGS:   lowest Hinv e-value    0.224827446859300     
   GDM::BFGS:   highest Hinv e-value    1.37589673364629     
   GDM::      : max scaling in EWCs is          2.10230919512509     
   GDM::      : max rotation in step is       -4.139496748837749E-009
   GDM::        grad.step =  -1.206791156475918E-015
   ------- Leaving GDM -- hopefully with a step in the right direction! --------
 
   17    -717.2363577609      8.74E-09 Convergence criterion met
 ---------------------------------------
 One-Electron    Energy = -1635.4017741750
 Total Coulomb   Energy =   671.3843084006
 Alpha Exchange  Energy =    -6.0272678449
 Beta  Exchange  Energy =    -6.0272678449
 DFT   Exchange  Energy =   -48.1945385282
 DFT Correlation Energy =    -2.9242489615
 Nuclear Repu.   Energy =   309.9544311930
 Nuclear Attr.   Energy = -2304.0599149009
 Kinetic         Energy =   668.6581407259
 SCF time:  CPU 76.29 s  wall 7.06 s
 SCF   energy in the final basis set = -717.2363577609
 Total energy in the final basis set = -717.2363577609
 
 --------------------------------------------------------------
 
                    Orbital Energies (a.u.)
 --------------------------------------------------------------
 
 Alpha MOs
 -- Occupied --
-88.846 -19.174 -19.141 -19.140  -7.923  -5.883  -5.882  -5.881
 -2.098  -2.097  -1.320  -1.304  -1.302  -1.301  -1.299  -1.293
 -0.929  -0.865  -0.864  -0.671  -0.406  -0.400  -0.384  -0.354
 -0.343  -0.339  -0.337  -0.332  -0.302  -0.293  -0.282  -0.273
 -- Virtual --
 -0.160  -0.137  -0.133  -0.102  -0.091  -0.060  -0.042  -0.027
 -0.024  -0.010   0.002   0.003   0.016   0.027   0.030   0.042
  0.048   0.074   0.081   0.082   0.096   0.096   0.107   0.113
  0.138   0.160   0.165   0.172   0.188   0.191   0.197   0.198
  0.202   0.232   0.237   0.241   0.251   0.252   0.266   0.275
  0.296   0.296   0.305   0.334   0.351   0.362   0.380   0.443
  0.529   0.532   0.609   0.682   0.691   0.729   0.824   0.828
  0.854   0.923   0.936   1.140   1.167   1.189   1.193   1.217
  1.230   1.247   1.263   1.315   1.615   1.662   1.749   1.767
  1.767   1.783   1.801   1.810   1.813   1.821   1.824   1.840
  1.841   1.873   1.918   1.939   2.044   2.060  14.231  15.596
 --------------------------------------------------------------
 
          Ground-State Mulliken Net Atomic Charges

     Atom                 Charge (a.u.)
  ----------------------------------------
      1 Zr                    1.287107
      2 O                    -0.573802
      3 O                    -1.064058
      4 S                    -0.362006
      5 Zr                    1.287055
      6 O                    -0.574297
  ----------------------------------------
  Sum of atomic charges =     0.000000

 -----------------------------------------------------------------
                    Cartesian Multipole Moments
 -----------------------------------------------------------------
    Charge (ESU x 10^10)
                 0.0000
    Dipole Moment (Debye)
         X       0.4369      Y       0.0000      Z      -0.1611
       Tot       0.4656
    Quadrupole Moments (Debye-Ang)
        XX     -88.6515     XY       0.0000     YY     -64.3455
        XZ      -4.3103     YZ       0.0000     ZZ    -100.5748
    Octopole Moments (Debye-Ang^2)
       XXX     -60.5240    XXY       0.0000    XYY     -19.7435
       YYY       0.0000    XXZ       5.2198    XYZ       0.0000
       YYZ     -10.3332    XZZ       1.7675    YZZ       0.0000
       ZZZ     -87.8926
    Hexadecapole Moments (Debye-Ang^3)
      XXXX    -685.0187   XXXY       0.0000   XXYY    -119.0895
      XYYY       0.0000   YYYY     -83.6998   XXXZ    -156.3208
      XXYZ       0.0000   XYYZ     -44.3769   YYYZ       0.0000
      XXZZ    -389.0027   XYZZ       0.0000   YYZZ    -231.5753
      XZZZ    -293.3383   YZZZ       0.0000   ZZZZ   -1974.8555
 -----------------------------------------------------------------
 Calculating analytic gradient of the SCF energy
 Gradient of SCF Energy
            1           2           3           4           5           6
    1   0.0000155   0.0000166   0.0000035  -0.0000226   0.0000093  -0.0000222
    2   0.0000000  -0.0000000   0.0000000  -0.0000000  -0.0000000   0.0000000
    3   0.0000277  -0.0000338   0.0000113  -0.0000200  -0.0000037   0.0000185
 Max gradient component =       3.382E-05
 RMS gradient           =       1.567E-05
 Gradient time:  CPU 16.35 s  wall 2.30 s
 Geometry Optimization Parameters
   NAtoms,    NIC,     NZ,  NCons,   NDum,   NFix, NCnnct, MaxDiis
        6      25       0       0       0       0       0       0

 Cartesian Hessian Update
 Hessian Updated using BFGS Update


** GEOMETRY OPTIMIZATION IN CARTESIAN COORDINATES **
   Searching for a Minimum

   Optimization Cycle:  86

                       Coordinates (Angstroms)
     ATOM                X               Y               Z
      1  Zr        0.5120704955    0.0000000000    1.7632779999
      2  O         0.5524776281    0.0000000000    3.5474670194
      3  O        -1.1414952469    0.0000000000    0.6090130947
      4  S         1.9531716647    0.0000000000   -0.3506301834
      5  Zr       -0.4386773440    0.0000000000   -1.2758405121
      6  O        -1.4375471974    0.0000000000   -2.7554674185
   Point Group: c1    Number of degrees of freedom:    12


   Energy is   -717.236357761


 Translations and Rotations Projected Out of Hessian

  9 Hessian modes will be used to form the next step
  Hessian Eigenvalues:
     0.005795    0.009821    0.054064    0.121685    0.175893    0.354588
     0.555000    0.909587    1.006444

 Minimum Search - Taking Simple RFO Step
 Searching for Lamda that Minimizes Along All modes
 Value Taken    Lamda =   0.00000000
 Step Taken.  Stepsize is  0.001385

                             Maximum     Tolerance    Cnvgd?
         Gradient           0.000034      0.000300     YES
         Displacement       0.000862      0.001200     YES
         Energy change      0.000000      0.000001     YES


                       Distance Matrix (Angstroms)
             Zr(  1)   O (  2)   O (  3)   S (  4)   Zr(  5)
   O (  2)  1.784647
   O (  3)  2.016583  3.391763
   S (  4)  2.558394  4.142114  3.240043
   Zr(  5)  3.184362  4.924092  2.011623  2.564558
   O (  6)  4.921389  6.609628  3.377481  4.156948  1.785227
 
 Final energy is   -717.236357760862     


 ******************************
 **  OPTIMIZATION CONVERGED  **
 ******************************

                       Coordinates (Angstroms)
     ATOM                X               Y               Z
      1  Zr        0.5120704955    0.0000000000    1.7632779999
      2  O         0.5524776281    0.0000000000    3.5474670194
      3  O        -1.1414952469    0.0000000000    0.6090130947
      4  S         1.9531716647    0.0000000000   -0.3506301834
      5  Zr       -0.4386773440    0.0000000000   -1.2758405121
      6  O        -1.4375471974    0.0000000000   -2.7554674185

Z-matrix Print:
$molecule
0 1
Zr
O  1 1.784647
O  1 2.016583 2 126.214187
Zr 3 2.011623 1 104.467501 2 -180.000000 0
O  4 1.785227 3 125.528102 1 -180.000000 0
S  1 2.558394 2 144.419446 3 -180.000000 0
$end

 
 --------------------------------------------------------------
 
                    Orbital Energies (a.u.)
 --------------------------------------------------------------
 
 Alpha MOs
 -- Occupied --
-88.846 -19.174 -19.141 -19.140  -7.923  -5.883  -5.882  -5.881
 -2.098  -2.097  -1.320  -1.304  -1.302  -1.301  -1.299  -1.293
 -0.929  -0.865  -0.864  -0.671  -0.406  -0.400  -0.384  -0.354
 -0.343  -0.339  -0.337  -0.332  -0.302  -0.293  -0.282  -0.273
 -- Virtual --
 -0.160  -0.137  -0.133  -0.102  -0.091  -0.060  -0.042  -0.027
 -0.024  -0.010   0.002   0.003   0.016   0.027   0.030   0.042
  0.048   0.074   0.081   0.082   0.096   0.096   0.107   0.113
  0.138   0.160   0.165   0.172   0.188   0.191   0.197   0.198
  0.202   0.232   0.237   0.241   0.251   0.252   0.266   0.275
  0.296   0.296   0.305   0.334   0.351   0.362   0.380   0.443
  0.529   0.532   0.609   0.682   0.691   0.729   0.824   0.828
  0.854   0.923   0.936   1.140   1.167   1.189   1.193   1.217
  1.230   1.247   1.263   1.315   1.615   1.662   1.749   1.767
  1.767   1.783   1.801   1.810   1.813   1.821   1.824   1.840
  1.841   1.873   1.918   1.939   2.044   2.060  14.231  15.596
 --------------------------------------------------------------
 
          Ground-State Mulliken Net Atomic Charges

     Atom                 Charge (a.u.)
  ----------------------------------------
      1 Zr                    1.287107
      2 O                    -0.573802
      3 O                    -1.064058
      4 S                    -0.362006
      5 Zr                    1.287055
      6 O                    -0.574297
  ----------------------------------------
  Sum of atomic charges =     0.000000

 -----------------------------------------------------------------
                    Cartesian Multipole Moments
 -----------------------------------------------------------------
    Charge (ESU x 10^10)
                 0.0000
    Dipole Moment (Debye)
         X       0.4369      Y       0.0000      Z      -0.1611
       Tot       0.4656
    Quadrupole Moments (Debye-Ang)
        XX     -88.6515     XY       0.0000     YY     -64.3455
        XZ      -4.3103     YZ       0.0000     ZZ    -100.5748
    Octopole Moments (Debye-Ang^2)
       XXX     -60.5240    XXY       0.0000    XYY     -19.7435
       YYY       0.0000    XXZ       5.2198    XYZ       0.0000
       YYZ     -10.3332    XZZ       1.7675    YZZ       0.0000
       ZZZ     -87.8926
    Hexadecapole Moments (Debye-Ang^3)
      XXXX    -685.0187   XXXY       0.0000   XXYY    -119.0895
      XYYY       0.0000   YYYY     -83.6998   XXXZ    -156.3208
      XXYZ       0.0000   XYYZ     -44.3769   YYYZ       0.0000
      XXZZ    -389.0027   XYZZ       0.0000   YYZZ    -231.5753
      XZZZ    -293.3383   YZZZ       0.0000   ZZZZ   -1974.8555
 -----------------------------------------------------------------
Archival summary:
1\1\hpc3916\OPT\ProcedureUnspecified\BasisUnspecified\r213(+,1)\liqiuy\FriJan1719:21:282020FriJan1719:21:282020\0\\#,OPT,ProcedureUnspecified,BasisUnspecified,\\56,1\Zr\O,1,1.78465\O,1,2.01658,2,126.214\Zr,3,2.01162,1,104.468,2,-180,0\O,4,1.78523,3,125.528,1,-180,0\S,1,2.55839,2,144.419,3,-180,0\\\@

 Total job time:  1254.55s(wall), 11123.67s(cpu) 
 Fri Jan 17 19:21:28 2020

        *************************************************************
        *                                                           *
        *  Thank you very much for using Q-Chem.  Have a nice day.  *
        *                                                           *
        *************************************************************


0 sent ACK to 0 
now end server 0 ... 
cleanup process ... done
