
Running Job 1 of 2 ZrOx.in
qchem ZrOx.in_9473.0 /tmp/5732533.priya/ZrOx.save/ 1
/usr/usc/qchem/4.4/bin/mpi/mpirun_qchem -machinefile /usr/usc/qchem/4.4/bin/mpi/machines -np 1 /usr/usc/qchem/4.4/exe/qcprog.exe ZrOx.in_9473.0 /tmp/5732533.priya/ZrOx.save/

Process 0 of 1 is on hpc3935.hpcc.usc.edu - thread support 0
initial socket setup ...start
initial socket setup ...done 
now start server 0 ... 
Check license passed

                  Welcome to Q-Chem
     A Quantum Leap Into The Future Of Chemistry


 Q-Chem 4.4, Q-Chem, Inc., Pleasanton, CA (2016)

 Y. Shao,  Z. Gan,  E. Epifanovsky,  A. T. B. Gilbert,  M. Wormit,  
 J. Kussmann,  A. W. Lange,  A. Behn,  J. Deng,  X. Feng,  D. Ghosh,  
 M. Goldey,  P. R. Horn,  L. D. Jacobson,  I. Kaliman,  F.Rob,  
 R. Z. Khaliullin,  T. Kus,  A. Landau,  J. Liu,  E. I. Proynov,  Y. M. Rhee,  
 R. M. Richard,  M. A. Rohrdanz,  R. P. Steele,  E. J. Sundstrom,  
 H. L. Woodcock III,  P. M. Zimmerman,  D. Zuev,  B. Albrecht,  E. Alguire,  
 B. Austin,  S. A. Baeppler,  G. J. O. Beran,  Y. A. Bernard,  E. Berquist,  
 K. Brandhorst,  K. B. Bravaya,  S. T. Brown,  D. Casanova,  C.-M. Chang,  
 Y. Chen,  S. H. Chien,  K. D. Closser,  M. P. Coons,  D. L. Crittenden,  
 S. Dasgupta,  M. Diedenhofen,  R. A. DiStasio Jr.,  H. Do,  A. D. Dutoi,  
 R. G. Edgar,  P.-T. Fang,  S. Fatehi,  Q. Feng,  L. Fusti-Molnar,  
 A. Ghysels,  A. Golubeva-Zadorozhnaya,  J. Gomes,  A. Gunina,  
 M. W. D. Hanson-Heine,  P. H. P. Harbach,  A. W. Hauser,  E. G. Hohenstein,  
 Z. C. Holden,  K. Hui,  T.-C. Jagau,  H. Ji,  B. Kaduk,  K. Khistyaev,  
 Jaehoon Kim,  Jihan Kim,  R. A. King,  P. Klunzinger,  D. Kosenkov,  
 T. Kowalczyk,  C. M. Krauter,  A. Kunitsa,  K. U. Lao,  A. Laurent,  
 K. V. Lawler,  D. Lefrancois,  S. Lehtola,  S. V. Levchenko,  C. Y. Lin,  
 Y.-S. Lin,  F. Liu,  E. Livshits,  R. C. Lochan,  A. Luenser,  P. Manohar,  
 S. F. Manzer,  S.-P. Mao,  Y. Mao,  N. Mardirossian,  A. V. Marenich,  
 L. A. Martinez-Martinez,  S. A. Maurer,  N. J. Mayhall,  J.-M. Mewes,  
 A. F. Morrison,  K. Nanda,  C. M. Oana,  R. Olivares-Amaya,  D. P. O'Neill,  
 J. A. Parkhill,  T. M. Perrine,  R. Peverati,  P. A. Pieniazek,  F. Plasser,  
 A. Prociuk,  D. R. Rehn,  E. Rosta,  N. J. Russ,  N. Sergueev,  
 S. M. Sharada,  S. Sharma,  D. W. Small,  A. Sodt,  T. Stauch,  T. Stein,  
 D. Stuck,  Y.-C. Su,  A. J. W. Thom,  T. Tsuchimochi,  L. Vogt,  O. Vydrov,  
 T. Wang,  M. A. Watson,  J. Wenzel,  A. White,  C. F. Williams,  
 V. Vanovschi,  S. Yeganeh,  S. R. Yost,  Z.-Q. You,  I. Y. Zhang,  X. Zhang,  
 Y. Zhao,  B. R. Brooks,  G. K. L. Chan,  D. M. Chipman,  C. J. Cramer,  
 W. A. Goddard III,  M. S. Gordon,  W. J. Hehre,  A. Klamt,  
 H. F. Schaefer III,  M. W. Schmidt,  C. D. Sherrill,  D. G. Truhlar,  
 A. Warshel,  X. Xu,  A. Aspuru-Guzik,  R. Baer,  A. T. Bell,  N. A. Besley,  
 J.-D. Chai,  A. Dreuw,  B. D. Dunietz,  T. R. Furlani,  S. R. Gwaltney,  
 C.-P. Hsu,  Y. Jung,  J. Kong,  D. S. Lambrecht,  W. Liang,  C. Ochsenfeld,  
 V. A. Rassolov,  L. V. Slipchenko,  J. E. Subotnik,  T. Van Voorhis,  
 J. M. Herbert,  A. I. Krylov,  P. M. W. Gill,  M. Head-Gordon

 Contributors to earlier versions of Q-Chem not listed above: 
 R. D. Adamson,  J. Baker,  E. F. C. Byrd,  A. K. Chakraborty,  C.-L. Cheng,  
 H. Dachsel,  R. J. Doerksen,  G. Hawkins,  A. Heyden,  S. Hirata,  
 G. Kedziora,  F. J. Keil,  C. Kelley,  P. P. Korambath,  W. Kurlancheek,  
 A. M. Lee,  M. S. Lee,  D. Liotard,  I. Lotan,  P. E. Maslen,  N. Nair,  
 D. Neuhauser,  R. Olson,  B. Peters,  J. Ritchie,  N. E. Schultz,  
 N. Shenvi,  A. C. Simmonett,  K. S. Thanthiriwatte,  Q. Wu,  W. Zhang

 Please cite Q-Chem as follows:
 Y. Shao et al., Mol. Phys. 113, 184-215 (2015)
 DOI: 10.1080/00268976.2014.952696

 Q-Chem 4.4.1 for Intel X86 Linux

 Parts of Q-Chem use Armadillo 5.200.1 (Boston Tea Smuggler).
 http://arma.sourceforge.net/

 Q-Chem begins on Fri Jan 17 18:59:00 2020  

Host: 
0

     Scratch files written to /tmp/5732533.priya/ZrOx.save//
 Jul2716 11668_ 21447  21445 5558   
 Parallel job on  1  processors
Processing $rem in /usr/usc/qchem/4.4/config/preferences.
 MEM_TOTAL  2000 

Checking the input file for inconsistencies... 	...done.

--------------------------------------------------------------
User input:
--------------------------------------------------------------
$comment
--------------------------------------------------------
A SINGLE POINT DFT CALCULATION WITH BASIS SET PROJECTION
--------------------------------------------------------
$end

$molecule
0 1
Zr 1.14137 -0.00059 0.00000
S 3.29115 0.00104 0.00000
O -0.22191 -1.31215 0.00000
O -0.22089 1.31162 0.00000
Zr -1.64837 0.00029 0.00000
O -3.35619 0.00125 0.00000
$end

$rem
JOBTYPE   SP
METHOD   B3LYP
BASIS   GEN
ECP   GEN
MAX_SCF_CYCLES   200
SCF_CONVERGENCE 8
SCF_PRINT 1
PDB_PRINT 2
THRESH 14
VARTHRESH 14
INCDFT FALSE
SYMMETRY False
Sym_ignore True
SCF_ALGORITHM GDM
XC_GRID 000128000302
DFT_D           EMPIRICAL_GRIMME3
DFT_D3_S6       1000
DFT_D3_RS6     1261
DFT_D3_S8      1703
DFT_D3_3BODY    FALSE
$end

$basis
O
6-31+G**
****
S
6-31+G**
****
Zr
LanL2DZ
****
$end

$ecp
Zr
LanL2DZ
****
$end

--------------------------------------------------------------
 ----------------------------------------------------------------
             Standard Nuclear Orientation (Angstroms)
    I     Atom           X                Y                Z
 ----------------------------------------------------------------
    1      Zr      1.1413700000    -0.0005900000     0.0000000000
    2      S       3.2911500000     0.0010400000     0.0000000000
    3      O      -0.2219100000    -1.3121500000     0.0000000000
    4      O      -0.2208900000     1.3116200000     0.0000000000
    5      Zr     -1.6483700000     0.0002900000     0.0000000000
    6      O      -3.3561900000     0.0012500000     0.0000000000
 ----------------------------------------------------------------
 Nuclear Repulsion Energy =   321.4723422619 hartrees
 There are       32 alpha and       32 beta electrons

 Q-Chem warning in module /home/scratch/svnadmin/11668_zgan/qchem/forms1/BasisType.C, line 1419:

 Setting pure/cartesian flag to 2111 for general basis


 Requested basis set is non-standard
 There are 37 shells and 120 basis functions

 Total QAlloc Memory Limit   2000 MB
 Mega-Array Size        61 MB
 MEM_STATIC part        62 MB

                       Distance Matrix (Angstroms)
             Zr(  1)   S (  2)   O (  3)   O (  4)   Zr(  5)
   S (  2)  2.149781
   O (  3)  1.891751  3.750474
   O (  4)  1.891467  3.748606  2.623770
   Zr(  5)  2.789740  4.939520  1.938372  1.938372
   O (  6)  4.497560  6.647340  3.398342  3.398114  1.707820
 
 A cutoff of  1.0D-14 yielded    671 shell pairs
 There are      7196 function pairs (      8205 Cartesian)
 
 -------------------------------------------------------
 OpenMP Integral Computing Module                       
 Release: version 1.0, May 2013, Q-Chem Inc. Pittsburgh 
 -------------------------------------------------------
 Integral Job Info:
 Integral job number is                      11
 Integral operator is                         1
 short-range coefficients                     0
 long-range coefficients              100000000
 Omega coefficients                           0
 if combine SR and LR in K                    0
 Integral screening is                        0
 Integral computing path is                   2
 max size of driver memory is            800000
 size of driver memory is                593474
 size of scratch memory is             15166112
 max col of scratch BK array               1296
 max len of scratch array in speh3          155
 max len of scratch index in speh4           18
 max int batch size is                      520
 min int batch size is                       52
 fixed nKL is                                52
 max L of basis functions is                  2
 order of int derivative is                   0
 number of shells is                         37
 number of basis is                         128
 number of cartesian basis is               128
 number of contracted shell pairs           671
 number of primitive shell pairs           3258
 maxK2 (contraction) of shell pair           36
 max number of K2 of shell pair               1
 max number of CS2 of shell pair             50
 max number of PS2 of shell pair            228
 mem total for path MDJ                   29320
 -------------------------------------------------------
 Requested basis set is non-standard
 Compound shells will be simplified
 There are 50 shells and 120 basis functions
 A cutoff of  1.0D-14 yielded   1213 shell pairs
 There are      7157 function pairs (      8166 Cartesian)
 Smallest overlap matrix eigenvalue = 5.29E-04

 Scale SEOQF with 1.000000e-01/1.000000e-01/1.000000e-01

 Standard Electronic Orientation quadrupole field applied
 Nucleus-field energy     =     0.0000000131 hartrees
 Guess MOs from core Hamiltonian diagonalization
 A restricted hybrid HF-DFT SCF calculation will be
 performed using Geometric Direct Minimization
 Exchange:     0.2000 Hartree-Fock + 0.0800 Slater + 0.7200 B88
 Correlation:  0.1900 VWN1RPA + 0.8100 LYP
 Using Euler-Maclaurin-Lebedev (128,302) quadrature formula
 Dispersion:   Grimme D3
 SCF converges when RMS gradient is below 1.0E-08
 Maximum number of minimization steps = 200
 using 12 threads for integral computing 
 -------------------------------------------------------
 OpenMP BLAS3 based DFT computing Module                
 Release: version 1.0, May 2013, Q-Chem Inc. Pittsburgh 
 -------------------------------------------------------
 
   ------------------- Entering Geometric Direct Minimization ------------------
   GDM:         diagonal hessian shift is      0.000000000000000E+000
   GDM::PreWSS: input subspace size is                  1
   GDM::PreWSS: working subspace size set to            1
   GDM::PrEWSS: # of linearly dependent vectors =            0
   GDM::PrEWSS: Max dev from orthonormality =   0.000000000000000E+000
   GDM::BFGS:   lowest Hinv e-value     1.00000000000000     
   GDM::BFGS:   highest Hinv e-value    1.00000000000000     
   GDM::      : max scaling in EWCs is          1.41421356237309     
   GDM::      : max rotation in step is        0.121555425615950     
   GDM::        grad.step =   -2.16316727960852     
   ------- Leaving GDM -- hopefully with a step in the right direction! --------
 
 ---------------------------------------
  Cycle       Energy        RMS Gradient
 ---------------------------------------
    1    -679.7467494067      1.71E+00  Gap = 0.00 eV  Descent step
 
   ------------------- Entering Geometric Direct Minimization ------------------
   GDM::trust : actual energy change is        -4.25233829750164     
   GDM::trust : predicted energy change was   -0.163350000000000     
   GDM::trust : updated trust radius is        0.330000000000000     
   GDM:         diagonal hessian shift is      0.000000000000000E+000
   GDM::PreWSS: input subspace size is                  2
   GDM::PreWSS: working subspace size set to            2
   GDM::PrEWSS: # of linearly dependent vectors =            0
   GDM::PrEWSS: Max dev from orthonormality =   4.642120021713936E-015
   GDM::BFGS:   lowest Hinv e-value    0.447074427937878     
   GDM::BFGS:   highest Hinv e-value    2.86753340590508     
   GDM::      : max scaling in EWCs is          1.41421356237309     
   GDM::      : max rotation in step is        9.124855321280963E-002
   GDM::        grad.step =   -2.10933816976396     
   ------- Leaving GDM -- hopefully with a step in the right direction! --------
 
    2    -683.9990877042      1.36E+00  Gap = 0.00 eV  Descent step
 
   ------------------- Entering Geometric Direct Minimization ------------------
   GDM::trust : actual energy change is        -4.09036922838436     
   GDM::trust : predicted energy change was   -0.132827694825348     
   GDM::trust : updated trust radius is        0.330000000000000     
   GDM::search:  On step            1 .  The current bracket is:
       left   : x =  0.0000E+00, e =      -683.9990877042, g = -0.5811E+01
       current: x =  0.3630E+00, e =      -688.0894569326, g = -0.5386E+01
       right  : x =  0.1000E+04, e =      1000.0000000000, g =  0.1000E+04
       next   : x =  0.3630E+01
   GDM::      : max rotation in step is        0.912485532128096     
   ------- Leaving GDM -- hopefully with a step in the right direction! --------
 
    3    -688.0894569326      7.24E+00  Gap = 0.00 eV  Line search: understep
 
   ------------------- Entering Geometric Direct Minimization ------------------
   GDM::trust : actual energy change is        -2.73996252192319     
   GDM::trust : predicted energy change was   -0.132827694825348     
   GDM::trust : updated trust radius is        0.330000000000000     
   GDM:         diagonal hessian shift is      0.000000000000000E+000
   GDM::PreWSS: input subspace size is                  3
   GDM::PreWSS: working subspace size set to            3
   GDM::PrEWSS: # of linearly dependent vectors =            0
   GDM::PrEWSS: Max dev from orthonormality =   1.131733595727269E-014
   GDM::BFGS:   lowest Hinv e-value    0.166901091696147     
   GDM::BFGS:   highest Hinv e-value    2.25125875934437     
   GDM::      : max scaling in EWCs is          2.82842712474619     
   GDM::      : max rotation in step is        0.306192780563208     
   GDM::        grad.step =   -2.42561262709766     
   ------- Leaving GDM -- hopefully with a step in the right direction! --------
 
    4    -686.7390502262      2.41E+00  Gap = 0.00 eV  Descent step
 
   ------------------- Entering Geometric Direct Minimization ------------------
   GDM::trust : actual energy change is        -4.57924658388106     
   GDM::trust : predicted energy change was   -0.365312734695290     
   GDM::trust : updated trust radius is        0.330000000000000     
   GDM:         diagonal hessian shift is      0.000000000000000E+000
   GDM::PreWSS: input subspace size is                  4
   GDM::PreWSS: working subspace size set to            4
   GDM::PrEWSS: # of linearly dependent vectors =            0
   GDM::PrEWSS: Max dev from orthonormality =   5.991734886023892E-014
   GDM::BFGS:   lowest Hinv e-value    0.415420278041339     
   GDM::BFGS:   highest Hinv e-value    2.50906410272247     
   GDM::      : max scaling in EWCs is          2.82842712474619     
   GDM::      : max rotation in step is        0.213744387400117     
   GDM::        grad.step =   -1.80155975120427     
   ------- Leaving GDM -- hopefully with a step in the right direction! --------
 
    5    -691.3182968100      1.54E+00  Gap = 0.00 eV  Descent step
 
   ------------------- Entering Geometric Direct Minimization ------------------
   GDM::trust : actual energy change is        -3.43944147015941     
   GDM::trust : predicted energy change was   -0.182994696142298     
   GDM::trust : updated trust radius is        0.330000000000000     
   GDM:         diagonal hessian shift is      0.000000000000000E+000
   GDM::PreWSS: input subspace size is                  5
   GDM::PreWSS: working subspace size set to            5
   GDM::PrEWSS: # of linearly dependent vectors =            0
   GDM::PrEWSS: Max dev from orthonormality =   6.618317005546714E-014
   GDM::BFGS:   lowest Hinv e-value    0.314763706573274     
   GDM::BFGS:   highest Hinv e-value    2.60634205122703     
   GDM::      : max scaling in EWCs is          2.82842712474619     
   GDM::      : max rotation in step is       -0.331121170219219     
   GDM::        grad.step =   -1.64984311004437     
   ------- Leaving GDM -- hopefully with a step in the right direction! --------
 
    6    -694.7577382802      1.77E+00  Gap = 0.00 eV  Descent step
 
   ------------------- Entering Geometric Direct Minimization ------------------
   GDM::trust : actual energy change is        -3.02014814853578     
   GDM::trust : predicted energy change was   -0.166794937483437     
   GDM::trust : updated trust radius is        0.330000000000000     
   GDM:         diagonal hessian shift is      0.000000000000000E+000
   GDM::PreWSS: input subspace size is                  6
   GDM::PreWSS: working subspace size set to            6
   GDM::PrEWSS: # of linearly dependent vectors =            0
   GDM::PrEWSS: Max dev from orthonormality =   1.424069195898880E-013
   GDM::BFGS:   lowest Hinv e-value    0.240220829220601     
   GDM::BFGS:   highest Hinv e-value    3.01784183320312     
   GDM::      : max scaling in EWCs is          2.82842712474619     
   GDM::      : max rotation in step is        0.247068022718896     
   GDM::        grad.step =   -1.18951602494660     
   ------- Leaving GDM -- hopefully with a step in the right direction! --------
 
    7    -697.7778864287      9.54E-01  Gap = 0.00 eV  Descent step
 
   ------------------- Entering Geometric Direct Minimization ------------------
   GDM::trust : actual energy change is        -2.24578818078010     
   GDM::trust : predicted energy change was   -0.161713303758573     
   GDM::trust : updated trust radius is        0.330000000000000     
   GDM:         diagonal hessian shift is      0.000000000000000E+000
   GDM::PreWSS: input subspace size is                  7
   GDM::PreWSS: working subspace size set to            7
   GDM::PrEWSS: # of linearly dependent vectors =            0
   GDM::PrEWSS: Max dev from orthonormality =   1.762357620949118E-013
   GDM::BFGS:   lowest Hinv e-value    0.206911188493980     
   GDM::BFGS:   highest Hinv e-value    3.32540018754492     
   GDM::      : max scaling in EWCs is          2.82842712474619     
   GDM::      : max rotation in step is       -0.364371598654661     
   GDM::        grad.step =   -1.05158345094585     
   ------- Leaving GDM -- hopefully with a step in the right direction! --------
 
    8    -700.0236746095      1.38E+00  Gap = 0.00 eV  Descent step
 
   ------------------- Entering Geometric Direct Minimization ------------------
   GDM::trust : actual energy change is        -2.01180744842532     
   GDM::trust : predicted energy change was   -0.147208783872195     
   GDM::trust : updated trust radius is        0.330000000000000     
   GDM:         diagonal hessian shift is      0.000000000000000E+000
   GDM::PreWSS: input subspace size is                  8
   GDM::PreWSS: working subspace size set to            8
   GDM::PrEWSS: # of linearly dependent vectors =            0
   GDM::PrEWSS: Max dev from orthonormality =   4.525581298597814E-013
   GDM::BFGS:   lowest Hinv e-value    0.195615788733338     
   GDM::BFGS:   highest Hinv e-value    4.30124531591731     
   GDM::      : max scaling in EWCs is          2.82842712474619     
   GDM::      : max rotation in step is        0.150225642930826     
   GDM::        grad.step =  -0.901771499344006     
   ------- Leaving GDM -- hopefully with a step in the right direction! --------
 
    9    -702.0354820579      5.31E-01  Gap = 0.00 eV  Descent step
 
   ------------------- Entering Geometric Direct Minimization ------------------
   GDM::trust : actual energy change is        -1.71345305435250     
   GDM::trust : predicted energy change was   -0.143217184816953     
   GDM::trust : updated trust radius is        0.330000000000000     
   GDM:         diagonal hessian shift is      0.000000000000000E+000
   GDM::PreWSS: input subspace size is                  9
   GDM::PreWSS: working subspace size set to            9
   GDM::PrEWSS: # of linearly dependent vectors =            0
   GDM::PrEWSS: Max dev from orthonormality =   5.708211681110242E-013
   GDM::BFGS:   lowest Hinv e-value    0.199967635709981     
   GDM::BFGS:   highest Hinv e-value    3.98615387302789     
   GDM::      : max scaling in EWCs is          2.82842712474619     
   GDM::      : max rotation in step is       -0.235031293532446     
   GDM::        grad.step =  -0.839405586138675     
   ------- Leaving GDM -- hopefully with a step in the right direction! --------
 
   10    -703.7489351123      6.81E-01  Gap = 0.00 eV  Descent step
 
   ------------------- Entering Geometric Direct Minimization ------------------
   GDM::trust : actual energy change is        -1.51147426339480     
   GDM::trust : predicted energy change was   -0.143729333222103     
   GDM::trust : updated trust radius is        0.330000000000000     
   GDM:         diagonal hessian shift is      0.000000000000000E+000
   GDM::PreWSS: input subspace size is                 10
   GDM::PreWSS: working subspace size set to           10
   GDM::PrEWSS: # of linearly dependent vectors =            0
   GDM::PrEWSS: Max dev from orthonormality =   5.154852239508401E-013
   GDM::BFGS:   lowest Hinv e-value    0.189032791664656     
   GDM::BFGS:   highest Hinv e-value    4.22623337338790     
   GDM::      : max scaling in EWCs is          2.82842712474619     
   GDM::      : max rotation in step is       -0.203081813938487     
   GDM::        grad.step =  -0.693719552339157     
   ------- Leaving GDM -- hopefully with a step in the right direction! --------
 
   11    -705.2604093757      4.83E-01  Gap = 0.00 eV  Descent step
 
   ------------------- Entering Geometric Direct Minimization ------------------
   GDM::trust : actual energy change is        -1.28629628960175     
   GDM::trust : predicted energy change was   -0.148692870195560     
   GDM::trust : updated trust radius is        0.330000000000000     
   GDM:         diagonal hessian shift is      0.000000000000000E+000
   GDM::PreWSS: input subspace size is                 11
   GDM::PreWSS: working subspace size set to           11
   GDM::PrEWSS: # of linearly dependent vectors =            0
   GDM::PrEWSS: Max dev from orthonormality =   6.288858322989199E-013
   GDM::BFGS:   lowest Hinv e-value    0.205915115870889     
   GDM::BFGS:   highest Hinv e-value    4.47904157047621     
   GDM::      : max scaling in EWCs is          2.82842712474619     
   GDM::      : max rotation in step is       -0.162178190901284     
   GDM::        grad.step =  -0.627812720141281     
   ------- Leaving GDM -- hopefully with a step in the right direction! --------
 
   12    -706.5467056653      4.78E-01  Gap = 0.00 eV  Descent step
 
   ------------------- Entering Geometric Direct Minimization ------------------
   GDM::trust : actual energy change is        -1.19653307600720     
   GDM::trust : predicted energy change was   -0.139962945471686     
   GDM::trust : updated trust radius is        0.330000000000000     
   GDM:         diagonal hessian shift is      0.000000000000000E+000
   GDM::PreWSS: input subspace size is                 12
   GDM::PreWSS: working subspace size set to           12
   GDM::PrEWSS: # of linearly dependent vectors =            0
   GDM::PrEWSS: Max dev from orthonormality =   3.368295226069407E-013
   GDM::BFGS:   lowest Hinv e-value    0.188091606158132     
   GDM::BFGS:   highest Hinv e-value    4.91360256664905     
   GDM::      : max scaling in EWCs is          2.82842712474619     
   GDM::      : max rotation in step is        0.272374530079359     
   GDM::        grad.step =  -0.631328891039145     
   ------- Leaving GDM -- hopefully with a step in the right direction! --------
 
   13    -707.7432387413      5.69E-01  Gap = 0.00 eV  Descent step
 
   ------------------- Entering Geometric Direct Minimization ------------------
   GDM::trust : actual energy change is        -1.09836447193481     
   GDM::trust : predicted energy change was   -0.133145753831868     
   GDM::trust : updated trust radius is        0.330000000000000     
   GDM:         diagonal hessian shift is      0.000000000000000E+000
   GDM::PreWSS: input subspace size is                 13
   GDM::PreWSS: working subspace size set to           13
   GDM::PrEWSS: # of linearly dependent vectors =            0
   GDM::PrEWSS: Max dev from orthonormality =   3.842759443983823E-013
   GDM::BFGS:   lowest Hinv e-value    0.179870759376014     
   GDM::BFGS:   highest Hinv e-value    5.48946956717548     
   GDM::      : max scaling in EWCs is          2.82842712474619     
   GDM::      : max rotation in step is       -0.354149207465523     
   GDM::        grad.step =  -0.561746624034756     
   ------- Leaving GDM -- hopefully with a step in the right direction! --------
 
   14    -708.8416032132      6.46E-01  Gap = 0.00 eV  Descent step
 
   ------------------- Entering Geometric Direct Minimization ------------------
   GDM::trust : actual energy change is       -0.989709653847285     
   GDM::trust : predicted energy change was   -0.156316183088265     
   GDM::trust : updated trust radius is        0.330000000000000     
   GDM:         diagonal hessian shift is      0.000000000000000E+000
   GDM::PreWSS: input subspace size is                 14
   GDM::PreWSS: working subspace size set to           14
   GDM::PrEWSS: # of linearly dependent vectors =            0
   GDM::PrEWSS: Max dev from orthonormality =   2.655410613616738E-013
   GDM::BFGS:   lowest Hinv e-value    0.196989565216382     
   GDM::BFGS:   highest Hinv e-value    5.47922744231426     
   GDM::      : max scaling in EWCs is          2.82842712474619     
   GDM::      : max rotation in step is       -0.154001831393122     
   GDM::        grad.step =  -0.405163017591583     
   ------- Leaving GDM -- hopefully with a step in the right direction! --------
 
   15    -709.8313128671      3.87E-01  Gap = -916.05 eV  Descent step
 
   ------------------- Entering Geometric Direct Minimization ------------------
   GDM::trust : actual energy change is       -0.747513426607270     
   GDM::trust : predicted energy change was   -0.155077151887488     
   GDM::trust : updated trust radius is        0.330000000000000     
   GDM:         diagonal hessian shift is      0.000000000000000E+000
   GDM::PreWSS: input subspace size is                 15
   GDM::PreWSS: working subspace size set to           15
   GDM::PrEWSS: # of linearly dependent vectors =            0
   GDM::PrEWSS: Max dev from orthonormality =   3.535643999796889E-013
   GDM::BFGS:   lowest Hinv e-value    0.189476387001974     
   GDM::BFGS:   highest Hinv e-value    5.92184605343592     
   GDM::      : max scaling in EWCs is          2.82842712474619     
   GDM::      : max rotation in step is        0.238688985143211     
   GDM::        grad.step =  -0.406390965069968     
   ------- Leaving GDM -- hopefully with a step in the right direction! --------
 
   16    -710.5788262937      5.16E-01  Gap = -916.05 eV  Descent step
 
   ------------------- Entering Geometric Direct Minimization ------------------
   GDM::trust : actual energy change is       -0.741450147864384     
   GDM::trust : predicted energy change was   -0.133131302281460     
   GDM::trust : updated trust radius is        0.330000000000000     
   GDM:         diagonal hessian shift is      0.000000000000000E+000
   GDM::PreWSS: input subspace size is                 16
   GDM::PreWSS: working subspace size set to           16
   GDM::PrEWSS: # of linearly dependent vectors =            0
   GDM::PrEWSS: Max dev from orthonormality =   3.988892549600109E-013
   GDM::BFGS:   lowest Hinv e-value    0.124612704584968     
   GDM::BFGS:   highest Hinv e-value    6.26981585973461     
   GDM::      : max scaling in EWCs is          2.82842712474619     
   GDM::      : max rotation in step is        0.603642577567757     
   GDM::        grad.step =  -0.561742835344717     
   ------- Leaving GDM -- hopefully with a step in the right direction! --------
 
   17    -711.3202764415      1.10E+00  Gap = -916.05 eV  Descent step
 
   ------------------- Entering Geometric Direct Minimization ------------------
   GDM::trust : actual energy change is        0.243515975106334     
   GDM::trust : predicted energy change was   -0.204359309377284     
   GDM::trust : updated trust radius is        0.108900000000000     
   GDM::search:  On step            1 .  The current bracket is:
       left   : x =  0.0000E+00, e =      -711.3202764415, g = -0.6666E+00
       current: x =  0.8427E+00, e =      -711.0767604664, g =  0.1356E+01
       right  : x =  0.1000E+04, e =      1000.0000000000, g =  0.1000E+04
       next   : x =  0.2939E+00
   GDM::      : max rotation in step is        0.210548390565121     
   ------- Leaving GDM -- hopefully with a step in the right direction! --------
 
   18    -711.0767604664      4.30E-01  Gap = -916.05 eV  Line search: overstep
 
   ------------------- Entering Geometric Direct Minimization ------------------
   GDM::trust : actual energy change is       -0.292742360926013     
   GDM::trust : predicted energy change was   -0.204359309377284     
   GDM::trust : updated trust radius is        0.108900000000000     
   GDM:         diagonal hessian shift is      0.000000000000000E+000
   GDM::PreWSS: input subspace size is                 17
   GDM::PreWSS: working subspace size set to           17
   GDM::PrEWSS: # of linearly dependent vectors =            0
   GDM::PrEWSS: Max dev from orthonormality =   3.739265841407047E-013
   GDM::BFGS:   lowest Hinv e-value    9.885112876737634E-002
   GDM::BFGS:   highest Hinv e-value    5.85253393960452     
   GDM::      : max scaling in EWCs is          2.82842712474619     
   GDM::      : max rotation in step is       -0.114880455225758     
   GDM::        grad.step =  -0.132583142190857     
   ------- Leaving GDM -- hopefully with a step in the right direction! --------
 
   19    -711.6130188025      4.54E-01  Gap = -916.05 eV  Descent step
 
   ------------------- Entering Geometric Direct Minimization ------------------
   GDM::trust : actual energy change is       -0.236300072365111     
   GDM::trust : predicted energy change was   -3.442048116220951E-002
   GDM::trust : updated trust radius is        0.330000000000000     
   GDM:         diagonal hessian shift is      0.000000000000000E+000
   GDM::PreWSS: input subspace size is                 18
   GDM::PreWSS: working subspace size set to           18
   GDM::PrEWSS: # of linearly dependent vectors =            0
   GDM::PrEWSS: Max dev from orthonormality =   5.049641260690407E-013
   GDM::BFGS:   lowest Hinv e-value    7.194036840870782E-002
   GDM::BFGS:   highest Hinv e-value    5.66532840251674     
   GDM::      : max scaling in EWCs is          2.82842712474619     
   GDM::      : max rotation in step is       -0.398240708275374     
   GDM::        grad.step =  -0.349654602536225     
   ------- Leaving GDM -- hopefully with a step in the right direction! --------
 
   20    -711.8493188748      4.52E-01  Gap = -916.05 eV  Descent step
 
   ------------------- Entering Geometric Direct Minimization ------------------
   GDM::trust : actual energy change is       -0.624440374007463     
   GDM::trust : predicted energy change was   -0.136901062909974     
   GDM::trust : updated trust radius is        0.330000000000000     
   GDM:         diagonal hessian shift is      0.000000000000000E+000
   GDM::PreWSS: input subspace size is                 19
   GDM::PreWSS: working subspace size set to           18
   GDM::PrEWSS: # of linearly dependent vectors =            0
   GDM::PrEWSS: Max dev from orthonormality =   6.949649189458285E-013
   GDM::BFGS:   lowest Hinv e-value    9.035189075260745E-002
   GDM::BFGS:   highest Hinv e-value    5.68147852507852     
   GDM::      : max scaling in EWCs is          2.82842712474619     
   GDM::      : max rotation in step is        0.275545127314072     
   GDM::        grad.step =  -0.257881354370587     
   ------- Leaving GDM -- hopefully with a step in the right direction! --------
 
   21    -712.4737592488      2.31E-01  Gap = -916.05 eV  Descent step
 
   ------------------- Entering Geometric Direct Minimization ------------------
   GDM::trust : actual energy change is       -0.457211575772817     
   GDM::trust : predicted energy change was   -0.191881108786111     
   GDM::trust : updated trust radius is        0.330000000000000     
   GDM:         diagonal hessian shift is      0.000000000000000E+000
   GDM::PreWSS: input subspace size is                 19
   GDM::PreWSS: working subspace size set to           18
   GDM::PrEWSS: # of linearly dependent vectors =            0
   GDM::PrEWSS: Max dev from orthonormality =   4.685696275430473E-013
   GDM::BFGS:   lowest Hinv e-value    6.441285240753868E-002
   GDM::BFGS:   highest Hinv e-value    8.56434103966832     
   GDM::      : max scaling in EWCs is          2.82842712474619     
   GDM::      : max rotation in step is        0.240354016366095     
   GDM::        grad.step =  -0.309985384926408     
   ------- Leaving GDM -- hopefully with a step in the right direction! --------
 
   22    -712.9309708246      3.13E-01  Gap = -916.05 eV  Descent step
 
   ------------------- Entering Geometric Direct Minimization ------------------
   GDM::trust : actual energy change is       -1.139125197710200E-002
   GDM::trust : predicted energy change was   -0.436740762062547     
   GDM::trust : updated trust radius is        0.330000000000000     
   GDM:         diagonal hessian shift is      0.000000000000000E+000
   GDM::PreWSS: input subspace size is                 19
   GDM::PreWSS: working subspace size set to           18
   GDM::PrEWSS: # of linearly dependent vectors =            0
   GDM::PrEWSS: Max dev from orthonormality =   1.079185352192980E-012
   GDM::BFGS:   lowest Hinv e-value    9.872553718218233E-002
   GDM::BFGS:   highest Hinv e-value    14.0486888693835     
   GDM::      : max scaling in EWCs is          2.82842712474619     
   GDM::      : max rotation in step is        0.248233841264812     
   GDM::        grad.step =  -0.709745910119445     
   ------- Leaving GDM -- hopefully with a step in the right direction! --------
 
   23    -712.9423620766      9.59E-01  Gap = -916.05 eV  Descent step
 
   ------------------- Entering Geometric Direct Minimization ------------------
   GDM::trust : actual energy change is       -0.562765721966343     
   GDM::trust : predicted energy change was   -0.565918643348610     
   GDM::trust : updated trust radius is        0.330000000000000     
   GDM:         diagonal hessian shift is      0.000000000000000E+000
   GDM::PreWSS: input subspace size is                 19
   GDM::PreWSS: working subspace size set to           18
   GDM::PrEWSS: # of linearly dependent vectors =            0
   GDM::PrEWSS: Max dev from orthonormality =   1.762062717958202E-013
   GDM::BFGS:   lowest Hinv e-value    7.192527334596246E-002
   GDM::BFGS:   highest Hinv e-value    8.22806508596321     
   GDM::      : max scaling in EWCs is          2.82842712474619     
   GDM::      : max rotation in step is        0.151795818579891     
   GDM::        grad.step =  -0.472171703730497     
   ------- Leaving GDM -- hopefully with a step in the right direction! --------
 
   24    -713.5051277986      5.88E-01  Gap = -916.05 eV  Descent step
 
   ------------------- Entering Geometric Direct Minimization ------------------
   GDM::trust : actual energy change is       -0.279122146968689     
   GDM::trust : predicted energy change was   -0.501800185219236     
   GDM::trust : updated trust radius is        0.330000000000000     
   GDM:         diagonal hessian shift is      0.000000000000000E+000
   GDM::PreWSS: input subspace size is                 19
   GDM::PreWSS: working subspace size set to           18
   GDM::PrEWSS: # of linearly dependent vectors =            0
   GDM::PrEWSS: Max dev from orthonormality =   1.804563443119633E-013
   GDM::BFGS:   lowest Hinv e-value    0.111321050855060     
   GDM::BFGS:   highest Hinv e-value    21.6699507956946     
   GDM::      : max scaling in EWCs is          2.82842712474619     
   GDM::      : max rotation in step is       -0.301914252062329     
   GDM::        grad.step =  -0.639159323748217     
   ------- Leaving GDM -- hopefully with a step in the right direction! --------
 
   25    -713.7842499455      7.69E-01  Gap = -916.05 eV  Descent step
 
   ------------------- Entering Geometric Direct Minimization ------------------
   GDM::trust : actual energy change is        -1.06993257324564     
   GDM::trust : predicted energy change was   -0.270688616777185     
   GDM::trust : updated trust radius is        0.330000000000000     
   GDM:         diagonal hessian shift is      0.000000000000000E+000
   GDM::PreWSS: input subspace size is                 19
   GDM::PreWSS: working subspace size set to           18
   GDM::PrEWSS: # of linearly dependent vectors =            0
   GDM::PrEWSS: Max dev from orthonormality =   2.364566875634466E-013
   GDM::BFGS:   lowest Hinv e-value    0.129671562553114     
   GDM::BFGS:   highest Hinv e-value    17.5420802043438     
   GDM::      : max scaling in EWCs is          2.82842712474619     
   GDM::      : max rotation in step is        0.507048022421287     
   GDM::        grad.step =  -0.555211304066915     
   ------- Leaving GDM -- hopefully with a step in the right direction! --------
 
   26    -714.8541825188      9.34E-01  Gap = -916.05 eV  Descent step
 
   ------------------- Entering Geometric Direct Minimization ------------------
   GDM::trust : actual energy change is       -0.915201505557093     
   GDM::trust : predicted energy change was   -0.164765960039443     
   GDM::trust : updated trust radius is        0.330000000000000     
   GDM:         diagonal hessian shift is      0.000000000000000E+000
   GDM::PreWSS: input subspace size is                 19
   GDM::PreWSS: working subspace size set to           18
   GDM::PrEWSS: # of linearly dependent vectors =            0
   GDM::PrEWSS: Max dev from orthonormality =   1.304911040334034E-013
   GDM::BFGS:   lowest Hinv e-value    0.139924827348503     
   GDM::BFGS:   highest Hinv e-value    21.3511701392919     
   GDM::      : max scaling in EWCs is          2.82842712474619     
   GDM::      : max rotation in step is        0.701028526430363     
   GDM::        grad.step =  -0.479531375702081     
   ------- Leaving GDM -- hopefully with a step in the right direction! --------
 
   27    -715.7693840243      1.09E+00  Gap = -192.86 eV  Descent step
 
   ------------------- Entering Geometric Direct Minimization ------------------
   GDM::trust : actual energy change is       -0.787399980565965     
   GDM::trust : predicted energy change was   -0.187453225192677     
   GDM::trust : updated trust radius is        0.330000000000000     
   GDM:         diagonal hessian shift is      0.000000000000000E+000
   GDM::PreWSS: input subspace size is                 19
   GDM::PreWSS: working subspace size set to           18
   GDM::PrEWSS: # of linearly dependent vectors =            0
   GDM::PrEWSS: Max dev from orthonormality =   8.739536871971154E-014
   GDM::BFGS:   lowest Hinv e-value    0.175560593840775     
   GDM::BFGS:   highest Hinv e-value    20.5306042863508     
   GDM::      : max scaling in EWCs is          2.82842712474619     
   GDM::      : max rotation in step is       -0.364801778252170     
   GDM::        grad.step =  -0.252580807371463     
   ------- Leaving GDM -- hopefully with a step in the right direction! --------
 
   28    -716.5567840049      4.10E-01  Gap = -192.86 eV  Descent step
 
   ------------------- Entering Geometric Direct Minimization ------------------
   GDM::trust : actual energy change is       -0.404397808411318     
   GDM::trust : predicted energy change was   -0.160327546085804     
   GDM::trust : updated trust radius is        0.330000000000000     
   GDM:         diagonal hessian shift is      0.000000000000000E+000
   GDM::PreWSS: input subspace size is                 19
   GDM::PreWSS: working subspace size set to           18
   GDM::PrEWSS: # of linearly dependent vectors =            0
   GDM::PrEWSS: Max dev from orthonormality =   1.118011933032292E-013
   GDM::BFGS:   lowest Hinv e-value    0.140146951175320     
   GDM::BFGS:   highest Hinv e-value    23.8022305564789     
   GDM::      : max scaling in EWCs is          2.82842712474619     
   GDM::      : max rotation in step is       -0.359554456306479     
   GDM::        grad.step =  -0.171036437902503     
   ------- Leaving GDM -- hopefully with a step in the right direction! --------
 
   29    -716.9611818133      2.32E-01  Gap = -192.86 eV  Descent step
 
   ------------------- Entering Geometric Direct Minimization ------------------
   GDM::trust : actual energy change is       -0.155821204787230     
   GDM::trust : predicted energy change was   -0.203040127606364     
   GDM::trust : updated trust radius is        0.330000000000000     
   GDM:         diagonal hessian shift is      0.000000000000000E+000
   GDM::PreWSS: input subspace size is                 19
   GDM::PreWSS: working subspace size set to           18
   GDM::PrEWSS: # of linearly dependent vectors =            0
   GDM::PrEWSS: Max dev from orthonormality =   1.359329315775426E-013
   GDM::BFGS:   lowest Hinv e-value    0.289560669298243     
   GDM::BFGS:   highest Hinv e-value    21.0410911318678     
   GDM::      : max scaling in EWCs is          2.81140579309322     
   GDM::      : max rotation in step is        0.163783694515407     
   GDM::        grad.step =  -0.124028945715082     
   ------- Leaving GDM -- hopefully with a step in the right direction! --------
 
   30    -717.1170030181      1.19E-01  Gap = -192.86 eV  Descent step
 
   ------------------- Entering Geometric Direct Minimization ------------------
   GDM::trust : actual energy change is        0.139999841167537     
   GDM::trust : predicted energy change was   -0.247596872311757     
   GDM::trust : updated trust radius is        0.108900000000000     
   GDM::search:  On step            1 .  The current bracket is:
       left   : x =  0.0000E+00, e =      -717.1170030181, g = -0.2808E+00
       current: x =  0.4416E+00, e =      -716.9770031769, g =  0.6090E+00
       right  : x =  0.1000E+04, e =      1000.0000000000, g =  0.1000E+04
       next   : x =  0.1037E+00
   GDM::      : max rotation in step is        3.846913663451795E-002
   ------- Leaving GDM -- hopefully with a step in the right direction! --------
 
   31    -716.9770031769      7.70E+00  Gap = -192.86 eV  Line search: overstep
 
   ------------------- Entering Geometric Direct Minimization ------------------
   GDM::trust : actual energy change is       -3.753595046157443E-002
   GDM::trust : predicted energy change was   -0.247596872311757     
   GDM::trust : updated trust radius is        0.108900000000000     
   GDM:         diagonal hessian shift is      0.000000000000000E+000
   GDM::PreWSS: input subspace size is                 19
   GDM::PreWSS: working subspace size set to           18
   GDM::PrEWSS: # of linearly dependent vectors =            0
   GDM::PrEWSS: Max dev from orthonormality =   6.471559399479077E-014
   GDM::BFGS:   lowest Hinv e-value    0.251935961470379     
   GDM::BFGS:   highest Hinv e-value    21.2013625620272     
   GDM::      : max scaling in EWCs is          2.47396589068608     
   GDM::      : max rotation in step is       -8.317039944094477E-002
   GDM::        grad.step =  -1.532072080875268E-002
   ------- Leaving GDM -- hopefully with a step in the right direction! --------
 
   32    -717.1545389686      5.09E-02  Gap = -192.86 eV  Descent step
 
   ------------------- Entering Geometric Direct Minimization ------------------
   GDM::trust : actual energy change is       -1.039140411182871E-002
   GDM::trust : predicted energy change was   -2.214557276974861E-002
   GDM::trust : updated trust radius is        0.330000000000000     
   GDM:         diagonal hessian shift is      0.000000000000000E+000
   GDM::PreWSS: input subspace size is                 19
   GDM::PreWSS: working subspace size set to           18
   GDM::PrEWSS: # of linearly dependent vectors =            0
   GDM::PrEWSS: Max dev from orthonormality =   8.667112166849122E-014
   GDM::BFGS:   lowest Hinv e-value    0.286279844860795     
   GDM::BFGS:   highest Hinv e-value    20.9989347237020     
   GDM::      : max scaling in EWCs is          2.82842712474619     
   GDM::      : max rotation in step is       -0.100418427159784     
   GDM::        grad.step =  -9.696888103929166E-003
   ------- Leaving GDM -- hopefully with a step in the right direction! --------
 
   33    -717.1649303727      3.19E-02  Gap = -192.86 eV  Normal BFGS step
 
   ------------------- Entering Geometric Direct Minimization ------------------
   GDM::trust : actual energy change is        1.118596560445440E-002
   GDM::trust : predicted energy change was   -1.454533215589375E-002
   GDM::trust : updated trust radius is        0.108900000000000     
   GDM::search:  On step            1 .  The current bracket is:
       left   : x =  0.0000E+00, e =      -717.1649303727, g = -0.5033E-01
       current: x =  0.1927E+00, e =      -717.1537444071, g =  0.1098E+00
       right  : x =  0.1000E+04, e =      1000.0000000000, g =  0.1000E+04
       next   : x =  0.4473E-01
   GDM::      : max rotation in step is       -2.331449200714522E-002
   ------- Leaving GDM -- hopefully with a step in the right direction! --------
 
   34    -717.1537444071      6.70E-03  Gap = -192.86 eV  Line search: overstep
 
   ------------------- Entering Geometric Direct Minimization ------------------
   GDM::trust : actual energy change is       -2.874651809406714E-003
   GDM::trust : predicted energy change was   -1.454533215589375E-002
   GDM::trust : updated trust radius is        0.108900000000000     
   GDM:         diagonal hessian shift is      0.000000000000000E+000
   GDM::PreWSS: input subspace size is                 19
   GDM::PreWSS: working subspace size set to           18
   GDM::PrEWSS: # of linearly dependent vectors =            0
   GDM::PrEWSS: Max dev from orthonormality =   1.311936670411740E-013
   GDM::BFGS:   lowest Hinv e-value    0.296403203153718     
   GDM::BFGS:   highest Hinv e-value    19.7470089841367     
   GDM::trust : dogleg step length is          0.108900000000000     
   GDM::      : max scaling in EWCs is          2.82842712474619     
   GDM::      : max rotation in step is       -3.574502124319113E-002
   GDM::        grad.step =  -7.287824706936799E-003
   ------- Leaving GDM -- hopefully with a step in the right direction! --------
 
   35    -717.1678050245      1.90E-02  Gap = -192.86 eV  Dog-leg BFGS step
 
   ------------------- Entering Geometric Direct Minimization ------------------
   GDM::trust : actual energy change is        6.482892074586744E-003
   GDM::trust : predicted energy change was   -1.168178319195618E-002
   GDM::trust : updated trust radius is        3.593700000000000E-002
   GDM::search:  On step            1 .  The current bracket is:
       left   : x =  0.0000E+00, e =      -717.1678050245, g = -0.6073E-01
       current: x =  0.1200E+00, e =      -717.1613221324, g =  0.1113E+00
       right  : x =  0.1000E+04, e =      1000.0000000000, g =  0.1000E+04
       next   : x =  0.3175E-01
   GDM::      : max rotation in step is       -9.458601650846235E-003
   ------- Leaving GDM -- hopefully with a step in the right direction! --------
 
   36    -717.1613221324      1.62E-02  Gap = -192.86 eV  Line search: overstep
 
   ------------------- Entering Geometric Direct Minimization ------------------
   GDM::trust : actual energy change is       -2.340023083661436E-003
   GDM::trust : predicted energy change was   -1.168178319195618E-002
   GDM::trust : updated trust radius is        3.593700000000000E-002
   GDM:         diagonal hessian shift is      0.000000000000000E+000
   GDM::PreWSS: input subspace size is                 19
   GDM::PreWSS: working subspace size set to           18
   GDM::PrEWSS: # of linearly dependent vectors =            0
   GDM::PrEWSS: Max dev from orthonormality =   2.094088791260162E-013
   GDM::BFGS:   lowest Hinv e-value    0.307970189736429     
   GDM::BFGS:   highest Hinv e-value    15.5376765118810     
   GDM::trust : dogleg step length is          3.593700000000000E-002
   GDM::      : max scaling in EWCs is          2.70559748260435     
   GDM::      : max rotation in step is       -2.221846653939040E-002
   GDM::        grad.step =  -9.366720127099385E-004
   ------- Leaving GDM -- hopefully with a step in the right direction! --------
 
   37    -717.1701450476      8.35E-03  Gap = -192.86 eV  Dog-leg BFGS step
 
   ------------------- Entering Geometric Direct Minimization ------------------
   GDM::trust : actual energy change is       -8.925923793867696E-005
   GDM::trust : predicted energy change was   -1.337690884210931E-003
   GDM::trust : updated trust radius is        3.593700000000000E-002
   GDM:         diagonal hessian shift is      0.000000000000000E+000
   GDM::PreWSS: input subspace size is                 19
   GDM::PreWSS: working subspace size set to           18
   GDM::PrEWSS: # of linearly dependent vectors =            0
   GDM::PrEWSS: Max dev from orthonormality =   1.710520614039979E-012
   GDM::BFGS:   lowest Hinv e-value    0.315347120431366     
   GDM::BFGS:   highest Hinv e-value    8.96145929216536     
   GDM::trust : dogleg step length is          3.593700000000000E-002
   GDM::      : max scaling in EWCs is          2.56442903658024     
   GDM::      : max rotation in step is       -1.924390413367775E-002
   GDM::        grad.step =  -8.928610537267521E-004
   ------- Leaving GDM -- hopefully with a step in the right direction! --------
 
   38    -717.1702343068      1.12E-02  Gap = -192.86 eV  Dog-leg BFGS step
 
   ------------------- Entering Geometric Direct Minimization ------------------
   GDM::trust : actual energy change is       -6.066758419365215E-005
   GDM::trust : predicted energy change was   -1.503817924696711E-003
   GDM::trust : updated trust radius is        3.593700000000000E-002
   GDM:         diagonal hessian shift is      0.000000000000000E+000
   GDM::PreWSS: input subspace size is                 19
   GDM::PreWSS: working subspace size set to           18
   GDM::PrEWSS: # of linearly dependent vectors =            0
   GDM::PrEWSS: Max dev from orthonormality =   1.591959203350868E-012
   GDM::BFGS:   lowest Hinv e-value    0.311708974087981     
   GDM::BFGS:   highest Hinv e-value    5.07951852373364     
   GDM::trust : dogleg step length is          3.593700000000001E-002
   GDM::      : max scaling in EWCs is          2.59966511570705     
   GDM::      : max rotation in step is        9.859445869091953E-003
   GDM::        grad.step =  -1.009453984946849E-003
   ------- Leaving GDM -- hopefully with a step in the right direction! --------
 
   39    -717.1702949744      8.97E-03  Gap = -192.86 eV  Dog-leg BFGS step
 
   ------------------- Entering Geometric Direct Minimization ------------------
   GDM::trust : actual energy change is        3.555462636768425E-004
   GDM::trust : predicted energy change was   -1.735088517660508E-003
   GDM::trust : updated trust radius is        1.185921000000000E-002
   GDM::search:  On step            1 .  The current bracket is:
       left   : x =  0.0000E+00, e =      -717.1702949744, g = -0.2878E-01
       current: x =  0.3508E-01, e =      -717.1699394281, g =  0.3871E-01
       right  : x =  0.1000E+04, e =      1000.0000000000, g =  0.1000E+04
       next   : x =  0.1297E-01
   GDM::      : max rotation in step is        3.645661212134478E-003
   ------- Leaving GDM -- hopefully with a step in the right direction! --------
 
   40    -717.1699394281      3.63E-02  Gap = -192.86 eV  Line search: overstep
 
   ------------------- Entering Geometric Direct Minimization ------------------
   GDM::trust : actual energy change is       -4.206781624134237E-004
   GDM::trust : predicted energy change was   -1.735088517660508E-003
   GDM::trust : updated trust radius is        1.185921000000000E-002
   GDM:         diagonal hessian shift is      0.000000000000000E+000
   GDM::PreWSS: input subspace size is                 19
   GDM::PreWSS: working subspace size set to           18
   GDM::PrEWSS: # of linearly dependent vectors =            0
   GDM::PrEWSS: Max dev from orthonormality =   8.127873374341732E-013
   GDM::BFGS:   lowest Hinv e-value    0.286175272688313     
   GDM::BFGS:   highest Hinv e-value    4.05668297827429     
   GDM::      : max scaling in EWCs is          2.64762150882555     
   GDM::      : max rotation in step is        5.681275236232927E-003
   GDM::        grad.step =  -1.616654521275526E-004
   ------- Leaving GDM -- hopefully with a step in the right direction! --------
 
   41    -717.1707156525      5.31E-03  Gap = -192.86 eV  Descent step
 
   ------------------- Entering Geometric Direct Minimization ------------------
   GDM::trust : actual energy change is        3.451980160207313E-005
   GDM::trust : predicted energy change was   -2.271783103241800E-004
   GDM::trust : updated trust radius is        0.108900000000000     
   GDM::search:  On step            1 .  The current bracket is:
       left   : x =  0.0000E+00, e =      -717.1707156525, g = -0.1302E-01
       current: x =  0.1242E-01, e =      -717.1706811327, g =  0.1581E-01
       right  : x =  0.1000E+04, e =      1000.0000000000, g =  0.1000E+04
       next   : x =  0.5115E-02
   GDM::      : max rotation in step is        2.340812859952399E-003
   ------- Leaving GDM -- hopefully with a step in the right direction! --------
 
   42    -717.1706811327      1.99E-03  Gap = -192.86 eV  Line search: overstep
 
   ------------------- Entering Geometric Direct Minimization ------------------
   GDM::trust : actual energy change is       -7.248137751503236E-005
   GDM::trust : predicted energy change was   -2.271783103241800E-004
   GDM::trust : updated trust radius is        0.108900000000000     
   GDM:         diagonal hessian shift is      0.000000000000000E+000
   GDM::PreWSS: input subspace size is                 19
   GDM::PreWSS: working subspace size set to           18
   GDM::PrEWSS: # of linearly dependent vectors =            0
   GDM::PrEWSS: Max dev from orthonormality =   5.151205850761897E-012
   GDM::BFGS:   lowest Hinv e-value    0.258803457575114     
   GDM::BFGS:   highest Hinv e-value    4.69955309884836     
   GDM::      : max scaling in EWCs is          2.64466391292430     
   GDM::      : max rotation in step is        5.507629087496961E-003
   GDM::        grad.step =  -1.224561955487516E-004
   ------- Leaving GDM -- hopefully with a step in the right direction! --------
 
   43    -717.1707881339      2.03E-03  Gap = -192.86 eV  Normal BFGS step
 
   ------------------- Entering Geometric Direct Minimization ------------------
   GDM::trust : actual energy change is        3.749087958340169E-004
   GDM::trust : predicted energy change was   -1.836842933231275E-004
   GDM::trust : updated trust radius is        0.108900000000000     
   GDM::search:  On step            1 .  The current bracket is:
       left   : x =  0.0000E+00, e =      -717.1707881339, g = -0.6151E-02
       current: x =  0.1991E-01, e =      -717.1704132251, g =  0.2500E-01
       right  : x =  0.1000E+04, e =      1000.0000000000, g =  0.1000E+04
       next   : x =  0.2451E-02
   GDM::      : max rotation in step is        6.780164629937469E-004
   ------- Leaving GDM -- hopefully with a step in the right direction! --------
 
   44    -717.1704132251      1.12E-03  Gap = -192.86 eV  Line search: overstep
 
   ------------------- Entering Geometric Direct Minimization ------------------
   GDM::trust : actual energy change is       -2.076585133181652E-005
   GDM::trust : predicted energy change was   -1.836842933231275E-004
   GDM::trust : updated trust radius is        0.108900000000000     
   GDM:         diagonal hessian shift is      0.000000000000000E+000
   GDM::PreWSS: input subspace size is                 19
   GDM::PreWSS: working subspace size set to           18
   GDM::PrEWSS: # of linearly dependent vectors =            0
   GDM::PrEWSS: Max dev from orthonormality =   2.809748961274394E-012
   GDM::BFGS:   lowest Hinv e-value    0.244554707606999     
   GDM::BFGS:   highest Hinv e-value    3.30946877074607     
   GDM::      : max scaling in EWCs is          2.63864033885108     
   GDM::      : max rotation in step is       -1.968415247115763E-003
   GDM::        grad.step =  -1.736493473084910E-005
   ------- Leaving GDM -- hopefully with a step in the right direction! --------
 
   45    -717.1708088998      1.10E-03  Gap = -192.86 eV  Normal BFGS step
 
   ------------------- Entering Geometric Direct Minimization ------------------
   GDM::trust : actual energy change is       -1.436750324046443E-005
   GDM::trust : predicted energy change was   -2.604740209627365E-005
   GDM::trust : updated trust radius is        0.330000000000000     
   GDM:         diagonal hessian shift is      0.000000000000000E+000
   GDM::PreWSS: input subspace size is                 19
   GDM::PreWSS: working subspace size set to           18
   GDM::PrEWSS: # of linearly dependent vectors =            0
   GDM::PrEWSS: Max dev from orthonormality =   5.115644019504373E-012
   GDM::BFGS:   lowest Hinv e-value    0.241460952793219     
   GDM::BFGS:   highest Hinv e-value    3.09583154545643     
   GDM::      : max scaling in EWCs is          2.63252708354784     
   GDM::      : max rotation in step is       -1.530786280072233E-003
   GDM::        grad.step =  -3.558735907403051E-006
   ------- Leaving GDM -- hopefully with a step in the right direction! --------
 
   46    -717.1708232673      6.37E-04  Gap = -192.86 eV  Normal BFGS step
 
   ------------------- Entering Geometric Direct Minimization ------------------
   GDM::trust : actual energy change is        7.562214250356192E-007
   GDM::trust : predicted energy change was   -5.338103861104576E-006
   GDM::trust : updated trust radius is        0.108900000000000     
   GDM::search:  On step            1 .  The current bracket is:
       left   : x =  0.0000E+00, e =      -717.1708232673, g = -0.1147E-02
       current: x =  0.3104E-02, e =      -717.1708225111, g =  0.1390E-02
       right  : x =  0.1000E+04, e =      1000.0000000000, g =  0.1000E+04
       next   : x =  0.1280E-02
   GDM::      : max rotation in step is       -6.312535306547471E-004
   ------- Leaving GDM -- hopefully with a step in the right direction! --------
 
   47    -717.1708225111      5.36E-04  Gap = -192.86 eV  Line search: overstep
 
   ------------------- Entering Geometric Direct Minimization ------------------
   GDM::trust : actual energy change is       -1.596089532540645E-006
   GDM::trust : predicted energy change was   -5.338103861104576E-006
   GDM::trust : updated trust radius is        0.108900000000000     
   GDM:         diagonal hessian shift is      0.000000000000000E+000
   GDM::PreWSS: input subspace size is                 19
   GDM::PreWSS: working subspace size set to           18
   GDM::PrEWSS: # of linearly dependent vectors =            0
   GDM::PrEWSS: Max dev from orthonormality =   9.072353979178160E-012
   GDM::BFGS:   lowest Hinv e-value    0.244441209797407     
   GDM::BFGS:   highest Hinv e-value    2.63755716007157     
   GDM::      : max scaling in EWCs is          2.63151231805379     
   GDM::      : max rotation in step is       -3.640902748581162E-004
   GDM::        grad.step =  -5.190751326956720E-007
   ------- Leaving GDM -- hopefully with a step in the right direction! --------
 
   48    -717.1708248634      2.43E-04  Gap = -192.86 eV  Normal BFGS step
 
   ------------------- Entering Geometric Direct Minimization ------------------
   GDM::trust : actual energy change is       -2.358960955461953E-007
   GDM::trust : predicted energy change was   -7.786126990435081E-007
   GDM::trust : updated trust radius is        0.330000000000000     
   GDM:         diagonal hessian shift is      0.000000000000000E+000
   GDM::PreWSS: input subspace size is                 19
   GDM::PreWSS: working subspace size set to           18
   GDM::PrEWSS: # of linearly dependent vectors =            0
   GDM::PrEWSS: Max dev from orthonormality =   6.255249790365625E-012
   GDM::BFGS:   lowest Hinv e-value    0.235342841540778     
   GDM::BFGS:   highest Hinv e-value    2.51720716345164     
   GDM::      : max scaling in EWCs is          2.63304107625750     
   GDM::      : max rotation in step is       -3.724399536873262E-004
   GDM::        grad.step =  -2.765795476989225E-007
   ------- Leaving GDM -- hopefully with a step in the right direction! --------
 
   49    -717.1708250993      2.23E-04  Gap = -192.86 eV  Normal BFGS step
 
   ------------------- Entering Geometric Direct Minimization ------------------
   GDM::trust : actual energy change is       -3.960531103075482E-008
   GDM::trust : predicted energy change was   -4.148693215483839E-007
   GDM::trust : updated trust radius is        0.330000000000000     
   GDM:         diagonal hessian shift is      0.000000000000000E+000
   GDM::PreWSS: input subspace size is                 19
   GDM::PreWSS: working subspace size set to           18
   GDM::PrEWSS: # of linearly dependent vectors =            0
   GDM::PrEWSS: Max dev from orthonormality =   7.427983575447605E-012
   GDM::BFGS:   lowest Hinv e-value    0.243620788784440     
   GDM::BFGS:   highest Hinv e-value    3.08121546943359     
   GDM::      : max scaling in EWCs is          2.63694072430658     
   GDM::      : max rotation in step is        1.453978969411903E-004
   GDM::        grad.step =  -1.755541064937915E-007
   ------- Leaving GDM -- hopefully with a step in the right direction! --------
 
   50    -717.1708251389      2.73E-04  Gap = -192.86 eV  Normal BFGS step
 
   ------------------- Entering Geometric Direct Minimization ------------------
   GDM::trust : actual energy change is       -1.437476839782903E-007
   GDM::trust : predicted energy change was   -2.633311597406874E-007
   GDM::trust : updated trust radius is        0.330000000000000     
   GDM:         diagonal hessian shift is      0.000000000000000E+000
   GDM::PreWSS: input subspace size is                 19
   GDM::PreWSS: working subspace size set to           18
   GDM::PrEWSS: # of linearly dependent vectors =            0
   GDM::PrEWSS: Max dev from orthonormality =   5.382338671977571E-012
   GDM::BFGS:   lowest Hinv e-value    0.239389607104748     
   GDM::BFGS:   highest Hinv e-value    2.34885903952385     
   GDM::      : max scaling in EWCs is          2.63311328225410     
   GDM::      : max rotation in step is       -4.139031214447841E-005
   GDM::        grad.step =  -1.513547722986798E-008
   ------- Leaving GDM -- hopefully with a step in the right direction! --------
 
   51    -717.1708252826      4.14E-05  Gap = -192.86 eV  Normal BFGS step
 
   ------------------- Entering Geometric Direct Minimization ------------------
   GDM::trust : actual energy change is       -1.100022473110585E-008
   GDM::trust : predicted energy change was   -2.270321584480197E-008
   GDM::trust : updated trust radius is        0.330000000000000     
   GDM:         diagonal hessian shift is      0.000000000000000E+000
   GDM::PreWSS: input subspace size is                 19
   GDM::PreWSS: working subspace size set to           18
   GDM::PrEWSS: # of linearly dependent vectors =            0
   GDM::PrEWSS: Max dev from orthonormality =   5.512146294961440E-012
   GDM::BFGS:   lowest Hinv e-value    0.235120238220593     
   GDM::BFGS:   highest Hinv e-value    1.85781052189547     
   GDM::      : max scaling in EWCs is          2.63397921342630     
   GDM::      : max rotation in step is       -2.344891149552502E-005
   GDM::        grad.step =  -1.742082818423450E-009
   ------- Leaving GDM -- hopefully with a step in the right direction! --------
 
   52    -717.1708252936      1.55E-05  Gap = -192.86 eV  Normal BFGS step
 
   ------------------- Entering Geometric Direct Minimization ------------------
   GDM::trust : actual energy change is       -1.384819370287005E-009
   GDM::trust : predicted energy change was   -2.613124227635176E-009
   GDM::trust : updated trust radius is        0.330000000000000     
   GDM:         diagonal hessian shift is      0.000000000000000E+000
   GDM::PreWSS: input subspace size is                 19
   GDM::PreWSS: working subspace size set to           18
   GDM::PrEWSS: # of linearly dependent vectors =            0
   GDM::PrEWSS: Max dev from orthonormality =   8.219456365532452E-012
   GDM::BFGS:   lowest Hinv e-value    0.237062240559303     
   GDM::BFGS:   highest Hinv e-value    1.76901046746294     
   GDM::      : max scaling in EWCs is          2.63392573013832     
   GDM::      : max rotation in step is       -1.134330434428095E-005
   GDM::        grad.step =  -5.469765807751009E-010
   ------- Leaving GDM -- hopefully with a step in the right direction! --------
 
   53    -717.1708252950      9.49E-06  Gap = -0.01 eV  Normal BFGS step
 
   ------------------- Entering Geometric Direct Minimization ------------------
   GDM::trust : actual energy change is        4.188223101664335E-010
   GDM::trust : predicted energy change was   -8.204648711626513E-010
   GDM::trust : updated trust radius is        0.108900000000000     
   GDM::search:  On step            1 .  The current bracket is:
       left   : x =  0.0000E+00, e =      -717.1708252950, g = -0.2131E-04
       current: x =  0.2567E-04, e =      -717.1708252946, g =  0.3756E-04
       right  : x =  0.1000E+04, e =      1000.0000000000, g =  0.1000E+04
       next   : x =  0.7269E-05
   GDM::      : max rotation in step is       -3.212118942732218E-006
   ------- Leaving GDM -- hopefully with a step in the right direction! --------
 
   54    -717.1708252946      4.70E-05  Gap = -192.86 eV  Line search: overstep
 
   ------------------- Entering Geometric Direct Minimization ------------------
   GDM::trust : actual energy change is       -1.883790901047178E-010
   GDM::trust : predicted energy change was   -8.204648711626513E-010
   GDM::trust : updated trust radius is        0.108900000000000     
   GDM:         diagonal hessian shift is      0.000000000000000E+000
   GDM::PreWSS: input subspace size is                 19
   GDM::PreWSS: working subspace size set to           18
   GDM::PrEWSS: # of linearly dependent vectors =            0
   GDM::PrEWSS: Max dev from orthonormality =   1.599474025448799E-011
   GDM::BFGS:   lowest Hinv e-value    0.236228145667656     
   GDM::BFGS:   highest Hinv e-value    1.45400648940721     
   GDM::      : max scaling in EWCs is          2.63390721990562     
   GDM::      : max rotation in step is       -5.092964275511607E-006
   GDM::        grad.step =  -6.528315392128719E-011
   ------- Leaving GDM -- hopefully with a step in the right direction! --------
 
   55    -717.1708252952      2.49E-06  Gap = -192.86 eV  Normal BFGS step
 
   ------------------- Entering Geometric Direct Minimization ------------------
   GDM::trust : actual energy change is       -5.650235834764317E-011
   GDM::trust : predicted energy change was   -9.792473088193081E-011
   GDM::trust : updated trust radius is        0.330000000000000     
   GDM:         diagonal hessian shift is      0.000000000000000E+000
   GDM::PreWSS: input subspace size is                 19
   GDM::PreWSS: working subspace size set to           18
   GDM::PrEWSS: # of linearly dependent vectors =            0
   GDM::PrEWSS: Max dev from orthonormality =   4.173560325462788E-011
   GDM::BFGS:   lowest Hinv e-value    0.236241537841219     
   GDM::BFGS:   highest Hinv e-value    1.51383451302264     
   GDM::      : max scaling in EWCs is          2.63389582779894     
   GDM::      : max rotation in step is       -1.899360304334010E-006
   GDM::        grad.step =  -3.995170608817741E-012
   ------- Leaving GDM -- hopefully with a step in the right direction! --------
 
   56    -717.1708252952      5.78E-07  Gap = -192.86 eV  Normal BFGS step
 
   ------------------- Entering Geometric Direct Minimization ------------------
   GDM::trust : actual energy change is       -4.206412995699793E-012
   GDM::trust : predicted energy change was   -5.992755913226611E-012
   GDM::trust : updated trust radius is        0.330000000000000     
   GDM:         diagonal hessian shift is      0.000000000000000E+000
   GDM::PreWSS: input subspace size is                 19
   GDM::PreWSS: working subspace size set to           17
   GDM::PrEWSS: # of linearly dependent vectors =            0
   GDM::PrEWSS: Max dev from orthonormality =   1.685279693575126E-011
   GDM::BFGS:   lowest Hinv e-value    0.236104794942354     
   GDM::BFGS:   highest Hinv e-value    1.68353652942596     
   GDM::      : max scaling in EWCs is          2.63390001371461     
   GDM::      : max rotation in step is       -7.308060309679035E-007
   GDM::        grad.step =  -4.555924469880780E-013
   ------- Leaving GDM -- hopefully with a step in the right direction! --------
 
   57    -717.1708252953      1.76E-07  Gap = -192.86 eV  Normal BFGS step
 
   ------------------- Entering Geometric Direct Minimization ------------------
   GDM::trust : actual energy change is        1.364242052659392E-012
   GDM::trust : predicted energy change was   -6.833886704821169E-013
   GDM::trust : updated trust radius is        0.108900000000000     
   GDM::WARNING energy changes are now smaller than effective accuracy.
   GDM::        calculation will continue, but THRESH should be increased
   GDM::        or SCF_CONVERGENCE decreased.
   GDM::        effective_thresh =   3.200000000000000E-010
   GDM:         diagonal hessian shift is      0.000000000000000E+000
   GDM::PreWSS: input subspace size is                 18
   GDM::PreWSS: working subspace size set to           14
   GDM::PrEWSS: # of linearly dependent vectors =            0
   GDM::PrEWSS: Max dev from orthonormality =   5.979869377448210E-012
   GDM::BFGS:   lowest Hinv e-value    0.235399758170441     
   GDM::BFGS:   highest Hinv e-value    1.73472283873044     
   GDM::      : max scaling in EWCs is          2.63390025682974     
   GDM::      : max rotation in step is       -9.452475657723743E-008
   GDM::        grad.step =  -2.949959352758474E-014
   ------- Leaving GDM -- hopefully with a step in the right direction! --------
 
   58    -717.1708252952      4.64E-08  Gap = -192.86 eV  Normal BFGS step
 
   ------------------- Entering Geometric Direct Minimization ------------------
   GDM::trust : actual energy change is       -7.958078640513122E-013
   GDM::trust : predicted energy change was   -4.424939029137709E-014
   GDM::trust : updated trust radius is        0.330000000000000     
   GDM:         diagonal hessian shift is      0.000000000000000E+000
   GDM::PreWSS: input subspace size is                 15
   GDM::PreWSS: working subspace size set to           13
   GDM::PrEWSS: # of linearly dependent vectors =            0
   GDM::PrEWSS: Max dev from orthonormality =   1.245355207846188E-011
   GDM::BFGS:   lowest Hinv e-value    0.279500112388566     
   GDM::BFGS:   highest Hinv e-value    1.89769350803455     
   GDM::      : max scaling in EWCs is          2.63390009825694     
   GDM::      : max rotation in step is       -4.104117785986878E-008
   GDM::        grad.step =  -2.655438328100029E-015
   ------- Leaving GDM -- hopefully with a step in the right direction! --------
 
   59    -717.1708252953      1.62E-08  Gap = -192.86 eV  Normal BFGS step
 
   ------------------- Entering Geometric Direct Minimization ------------------
   GDM::trust : actual energy change is       -4.547473508864641E-013
   GDM::trust : predicted energy change was   -3.983157492150045E-015
   GDM::trust : updated trust radius is        0.330000000000000     
   GDM:         diagonal hessian shift is      0.000000000000000E+000
   GDM::PreWSS: input subspace size is                 14
   GDM::PreWSS: working subspace size set to           13
   GDM::PrEWSS: # of linearly dependent vectors =            0
   GDM::PrEWSS: Max dev from orthonormality =   4.560907207462606E-012
   GDM::BFGS:   lowest Hinv e-value    0.273672747506397     
   GDM::BFGS:   highest Hinv e-value    1.80124675488664     
   GDM::      : max scaling in EWCs is          2.63390000748035     
   GDM::      : max rotation in step is        8.050477319124107E-009
   GDM::        grad.step =  -9.536797449787678E-016
   ------- Leaving GDM -- hopefully with a step in the right direction! --------
 
   60    -717.1708252953      1.46E-08  Gap = -192.86 eV  Normal BFGS step
 
   ------------------- Entering Geometric Direct Minimization ------------------
   GDM::trust : actual energy change is        6.821210263296962E-013
   GDM::trust : predicted energy change was   -1.430519617468152E-015
   GDM::trust : updated trust radius is        0.108900000000000     
   GDM::WARNING energy changes are now smaller than effective accuracy.
   GDM::        calculation will continue, but THRESH should be increased
   GDM::        or SCF_CONVERGENCE decreased.
   GDM::        effective_thresh =   3.200000000000000E-010
   GDM:         diagonal hessian shift is      0.000000000000000E+000
   GDM::PreWSS: input subspace size is                 14
   GDM::PreWSS: working subspace size set to           14
   GDM::PrEWSS: # of linearly dependent vectors =            1
   GDM::PrEWSS: Max dev from orthonormality =   6.056509460616866E-012
   GDM::BFGS:   lowest Hinv e-value    0.260064828203910     
   GDM::BFGS:   highest Hinv e-value    1.77236097224398     
   GDM::      : max scaling in EWCs is          2.63390000477217     
   GDM::      : max rotation in step is        7.907187982624970E-009
   GDM::        grad.step =  -5.261433726346618E-016
   ------- Leaving GDM -- hopefully with a step in the right direction! --------
 
   61    -717.1708252953      9.87E-09 Convergence criterion met
 ---------------------------------------
 One-Electron    Energy = -1658.5283127449
 Total Coulomb   Energy =   683.3838574591
 Alpha Exchange  Energy =    -6.0616294136
 Beta  Exchange  Energy =    -6.0616294136
 DFT   Exchange  Energy =   -48.4305907431
 DFT Correlation Energy =    -2.9448627141
 Nuclear Repu.   Energy =   321.4723422751
 Nuclear Attr.   Energy = -2328.7596482309
 Kinetic         Energy =   670.2313354861
 SCF time:  CPU 304.92 s  wall 39.27 s
 SCF   energy in the final basis set = -717.1708252953
 Total energy in the final basis set = -717.1708252953
 
 --------------------------------------------------------------
 
                    Orbital Energies (a.u.)
 --------------------------------------------------------------
 
 Alpha MOs
 -- Occupied --
-88.792 -19.171 -19.171 -19.129  -7.875  -5.836  -5.833  -5.833
 -2.083  -2.072  -1.340  -1.299  -1.288  -1.279  -1.278  -1.276
 -0.937  -0.933  -0.846  -0.625  -0.425  -0.422  -0.420  -0.408
 -0.392  -0.391  -0.340  -0.313  -0.307  -0.261  -0.244  -0.240
 -- Virtual --
 -0.168  -0.123  -0.122  -0.080  -0.058  -0.051  -0.035  -0.010
 -0.005  -0.002   0.012   0.014   0.020   0.029   0.041   0.051
  0.079   0.089   0.101   0.107   0.113   0.116   0.116   0.143
  0.143   0.147   0.160   0.182   0.200   0.206   0.207   0.210
  0.214   0.222   0.223   0.237   0.253   0.268   0.269   0.288
  0.295   0.324   0.353   0.376   0.380   0.439   0.449   0.573
  0.579   0.602   0.659   0.694   0.751   0.844   0.848   0.894
  0.910   0.943   0.987   1.109   1.149   1.190   1.197   1.230
  1.245   1.264   1.286   1.302   1.659   1.677   1.730   1.732
  1.736   1.745   1.778   1.779   1.807   1.810   1.817   1.836
  1.863   1.884   1.997   2.016   2.099   2.167  14.258  17.316
 --------------------------------------------------------------
 
          Ground-State Mulliken Net Atomic Charges

     Atom                 Charge (a.u.)
  ----------------------------------------
      1 Zr                    1.265722
      2 S                    -0.397524
      3 O                    -0.960742
      4 O                    -0.960221
      5 Zr                    1.563470
      6 O                    -0.510705
  ----------------------------------------
  Sum of atomic charges =     0.000000

 -----------------------------------------------------------------
                    Cartesian Multipole Moments
 -----------------------------------------------------------------
    Charge (ESU x 10^10)
                 0.0000
    Dipole Moment (Debye)
         X      -2.9935      Y      -0.0058      Z       0.0000
       Tot       2.9935
    Quadrupole Moments (Debye-Ang)
        XX    -111.7509     XY      -0.0084     YY     -80.3406
        XZ       0.0000     YZ       0.0000     ZZ     -62.1546
    Octopole Moments (Debye-Ang^2)
       XXX     -55.1219    XXY      -0.0769    XYY     -19.0859
       YYY      -0.0303    XXZ       0.0000    XYZ       0.0000
       YYZ       0.0000    XZZ     -21.1959    YZZ      -0.0148
       ZZZ       0.0000
    Hexadecapole Moments (Debye-Ang^3)
      XXXX   -2600.6796   XXXY       0.0737   XXYY    -363.4151
      XYYY      -0.0654   YYYY    -251.8157   XXXZ       0.0000
      XXYZ       0.0000   XYYZ       0.0000   YYYZ       0.0000
      XXZZ    -324.1192   XYZZ      -0.0162   YYZZ     -50.9711
      XZZZ       0.0000   YZZZ       0.0000   ZZZZ     -75.8004
 -----------------------------------------------------------------
Archival summary:
1\1\hpc3935\SP\ProcedureUnspecified\BasisUnspecified\r213(+,1)\liqiuy\FriJan1718:59:402020FriJan1718:59:402020\0\\#,ProcedureUnspecified,BasisUnspecified,\\56,1\Zr\O,1,1.89147\O,1,1.89175,2,87.8202\Zr,2,1.93837,1,93.5005,3,0,0\O,4,1.70782,2,137.396,1,-180,0\S,1,2.14978,2,136.029,3,-180,0\\\@

 Total job time:  40.28s(wall), 310.09s(cpu) 
 Fri Jan 17 18:59:40 2020

        *************************************************************
        *                                                           *
        *  Thank you very much for using Q-Chem.  Have a nice day.  *
        *                                                           *
        *************************************************************


0 sent ACK to 0 
now end server 0 ... 
cleanup process ... done

Running Job 2 of 2 ZrOx.in
qchem ZrOx.in_9473.1 /tmp/5732533.priya/ZrOx.save/ 1
/usr/usc/qchem/4.4/bin/mpi/mpirun_qchem -machinefile /usr/usc/qchem/4.4/bin/mpi/machines -np 1 /usr/usc/qchem/4.4/exe/qcprog.exe ZrOx.in_9473.1 /tmp/5732533.priya/ZrOx.save/

Process 0 of 1 is on hpc3935.hpcc.usc.edu - thread support 0
initial socket setup ...start
initial socket setup ...done 
now start server 0 ... 
Check license passed

                  Welcome to Q-Chem
     A Quantum Leap Into The Future Of Chemistry


 Q-Chem 4.4, Q-Chem, Inc., Pleasanton, CA (2016)

 Y. Shao,  Z. Gan,  E. Epifanovsky,  A. T. B. Gilbert,  M. Wormit,  
 J. Kussmann,  A. W. Lange,  A. Behn,  J. Deng,  X. Feng,  D. Ghosh,  
 M. Goldey,  P. R. Horn,  L. D. Jacobson,  I. Kaliman,  F.Rob,  
 R. Z. Khaliullin,  T. Kus,  A. Landau,  J. Liu,  E. I. Proynov,  Y. M. Rhee,  
 R. M. Richard,  M. A. Rohrdanz,  R. P. Steele,  E. J. Sundstrom,  
 H. L. Woodcock III,  P. M. Zimmerman,  D. Zuev,  B. Albrecht,  E. Alguire,  
 B. Austin,  S. A. Baeppler,  G. J. O. Beran,  Y. A. Bernard,  E. Berquist,  
 K. Brandhorst,  K. B. Bravaya,  S. T. Brown,  D. Casanova,  C.-M. Chang,  
 Y. Chen,  S. H. Chien,  K. D. Closser,  M. P. Coons,  D. L. Crittenden,  
 S. Dasgupta,  M. Diedenhofen,  R. A. DiStasio Jr.,  H. Do,  A. D. Dutoi,  
 R. G. Edgar,  P.-T. Fang,  S. Fatehi,  Q. Feng,  L. Fusti-Molnar,  
 A. Ghysels,  A. Golubeva-Zadorozhnaya,  J. Gomes,  A. Gunina,  
 M. W. D. Hanson-Heine,  P. H. P. Harbach,  A. W. Hauser,  E. G. Hohenstein,  
 Z. C. Holden,  K. Hui,  T.-C. Jagau,  H. Ji,  B. Kaduk,  K. Khistyaev,  
[...]
   ------- Leaving GDM -- hopefully with a step in the right direction! --------
 
   10    -717.2219078859      4.84E-06  Gap = 27.21 eV  Normal BFGS step
 
   ------------------- Entering Geometric Direct Minimization ------------------
   GDM::trust : actual energy change is       -1.017497197608463E-010
   GDM::trust : predicted energy change was   -2.565262312441198E-010
   GDM::trust : updated trust radius is        0.330000000000000     
   GDM:         diagonal hessian shift is      0.000000000000000E+000
   GDM::PreWSS: input subspace size is                  8
   GDM::PreWSS: working subspace size set to            8
   GDM::PrEWSS: # of linearly dependent vectors =            7
   GDM::PrEWSS: Max dev from orthonormality =   3.941291737419306E-015
   GDM::BFGS:   lowest Hinv e-value    0.221324724972162     
   GDM::BFGS:   highest Hinv e-value    1.35222036313962     
   GDM::      : max scaling in EWCs is          2.67114420076299     
   GDM::      : max rotation in step is       -5.792577032933096E-006
   GDM::        grad.step =  -9.196243340046225E-011
   ------- Leaving GDM -- hopefully with a step in the right direction! --------
 
   11    -717.2219078860      7.26E-06  Gap = 27.21 eV  Normal BFGS step
 
   ------------------- Entering Geometric Direct Minimization ------------------
   GDM::trust : actual energy change is        2.933120413217694E-011
   GDM::trust : predicted energy change was   -1.379436501006934E-010
   GDM::trust : updated trust radius is        0.108900000000000     
   GDM::WARNING energy changes are now smaller than effective accuracy.
   GDM::        calculation will continue, but THRESH should be increased
   GDM::        or SCF_CONVERGENCE decreased.
   GDM::        effective_thresh =   3.200000000000000E-010
   GDM:         diagonal hessian shift is      0.000000000000000E+000
   GDM::PreWSS: input subspace size is                  9
   GDM::PreWSS: working subspace size set to            9
   GDM::PrEWSS: # of linearly dependent vectors =            8
   GDM::PrEWSS: Max dev from orthonormality =   7.605027718682322E-015
   GDM::BFGS:   lowest Hinv e-value    0.221580233212501     
   GDM::BFGS:   highest Hinv e-value    1.24531435623784     
   GDM::      : max scaling in EWCs is          2.67108262219726     
   GDM::      : max rotation in step is        2.600339259528637E-006
   GDM::        grad.step =  -8.012091291660592E-011
   ------- Leaving GDM -- hopefully with a step in the right direction! --------
 
   12    -717.2219078860      6.24E-06  Gap = 27.21 eV  Normal BFGS step
 
   ------------------- Entering Geometric Direct Minimization ------------------
   GDM::trust : actual energy change is       -7.730704965069890E-011
   GDM::trust : predicted energy change was   -1.201813693749089E-010
   GDM::trust : updated trust radius is        0.330000000000000     
   GDM:         diagonal hessian shift is      0.000000000000000E+000
   GDM::PreWSS: input subspace size is                 10
   GDM::PreWSS: working subspace size set to           10
   GDM::PrEWSS: # of linearly dependent vectors =            9
   GDM::PrEWSS: Max dev from orthonormality =   7.333023077649159E-014
   GDM::BFGS:   lowest Hinv e-value    0.221719682699395     
   GDM::BFGS:   highest Hinv e-value    1.25385273142516     
   GDM::      : max scaling in EWCs is          2.67109219879966     
   GDM::      : max rotation in step is        3.243896415487620E-007
   GDM::        grad.step =  -1.164328514170546E-012
   ------- Leaving GDM -- hopefully with a step in the right direction! --------
 
   13    -717.2219078860      4.02E-07  Gap = 27.21 eV  Normal BFGS step
 
   ------------------- Entering Geometric Direct Minimization ------------------
   GDM::trust : actual energy change is       -3.410605131648481E-013
   GDM::trust : predicted energy change was   -1.746492771255820E-012
   GDM::trust : updated trust radius is        0.330000000000000     
   GDM:         diagonal hessian shift is      0.000000000000000E+000
   GDM::PreWSS: input subspace size is                 11
   GDM::PreWSS: working subspace size set to           11
   GDM::PrEWSS: # of linearly dependent vectors =           10
   GDM::PrEWSS: Max dev from orthonormality =   9.017439572822639E-014
   GDM::BFGS:   lowest Hinv e-value    0.221169051672196     
   GDM::BFGS:   highest Hinv e-value    1.19215321112560     
   GDM::      : max scaling in EWCs is          2.67110141577927     
   GDM::      : max rotation in step is       -1.173727722253837E-007
   GDM::        grad.step =  -1.831807763582812E-013
   ------- Leaving GDM -- hopefully with a step in the right direction! --------
 
   14    -717.2219078860      2.29E-07  Gap = 27.21 eV  Normal BFGS step
 
   ------------------- Entering Geometric Direct Minimization ------------------
   GDM::trust : actual energy change is        6.821210263296962E-013
   GDM::trust : predicted energy change was   -2.747711645374218E-013
   GDM::trust : updated trust radius is        0.108900000000000     
   GDM::WARNING energy changes are now smaller than effective accuracy.
   GDM::        calculation will continue, but THRESH should be increased
   GDM::        or SCF_CONVERGENCE decreased.
   GDM::        effective_thresh =   3.200000000000000E-010
   GDM:         diagonal hessian shift is      0.000000000000000E+000
   GDM::PreWSS: input subspace size is                 12
   GDM::PreWSS: working subspace size set to           12
   GDM::PrEWSS: # of linearly dependent vectors =           11
   GDM::PrEWSS: Max dev from orthonormality =   1.807096139394559E-013
   GDM::BFGS:   lowest Hinv e-value    0.220603931224984     
   GDM::BFGS:   highest Hinv e-value    1.20426469431522     
   GDM::      : max scaling in EWCs is          2.67109872715657     
   GDM::      : max rotation in step is       -1.283866148267089E-008
   GDM::        grad.step =  -2.245089947739624E-015
   ------- Leaving GDM -- hopefully with a step in the right direction! --------
 
   15    -717.2219078860      1.32E-08  Gap = 27.21 eV  Normal BFGS step
 
   ------------------- Entering Geometric Direct Minimization ------------------
   GDM::trust : actual energy change is       -2.273736754432321E-013
   GDM::trust : predicted energy change was   -3.367634921609436E-015
   GDM::trust : updated trust radius is        0.330000000000000     
   GDM:         diagonal hessian shift is      0.000000000000000E+000
   GDM::PreWSS: input subspace size is                 13
   GDM::PreWSS: working subspace size set to           13
   GDM::PrEWSS: # of linearly dependent vectors =           12
   GDM::PrEWSS: Max dev from orthonormality =   7.007346092269273E-013
   GDM::BFGS:   lowest Hinv e-value    0.221314765716857     
   GDM::BFGS:   highest Hinv e-value    1.31349306834698     
   GDM::      : max scaling in EWCs is          2.67109857141533     
   GDM::      : max rotation in step is        1.029361572083578E-008
   GDM::        grad.step =  -1.508832009333241E-015
   ------- Leaving GDM -- hopefully with a step in the right direction! --------
 
   16    -717.2219078860      1.80E-08  Gap = 27.21 eV  Normal BFGS step
 
   ------------------- Entering Geometric Direct Minimization ------------------
   GDM::trust : actual energy change is        5.684341886080801E-013
   GDM::trust : predicted energy change was   -2.263248013999861E-015
   GDM::trust : updated trust radius is        0.108900000000000     
   GDM::WARNING energy changes are now smaller than effective accuracy.
   GDM::        calculation will continue, but THRESH should be increased
   GDM::        or SCF_CONVERGENCE decreased.
   GDM::        effective_thresh =   3.200000000000000E-010
   GDM:         diagonal hessian shift is      0.000000000000000E+000
   GDM::PreWSS: input subspace size is                 14
   GDM::PreWSS: working subspace size set to           14
   GDM::PrEWSS: # of linearly dependent vectors =           13
   GDM::PrEWSS: Max dev from orthonormality =   2.126840370486605E-013
   GDM::BFGS:   lowest Hinv e-value    0.221188861189243     
   GDM::BFGS:   highest Hinv e-value    1.21782997093809     
   GDM::      : max scaling in EWCs is          2.67109858035452     
   GDM::      : max rotation in step is        6.217535060204485E-009
   GDM::        grad.step =  -9.701550580843596E-016
   ------- Leaving GDM -- hopefully with a step in the right direction! --------
 
   17    -717.2219078860      1.38E-08  Gap = 27.21 eV  Normal BFGS step
 
   ------------------- Entering Geometric Direct Minimization ------------------
   GDM::trust : actual energy change is       -1.136868377216160E-012
   GDM::trust : predicted energy change was   -1.455232587126539E-015
   GDM::trust : updated trust radius is        0.330000000000000     
   GDM:         diagonal hessian shift is      0.000000000000000E+000
   GDM::PreWSS: input subspace size is                 15
   GDM::PreWSS: working subspace size set to           15
   GDM::PrEWSS: # of linearly dependent vectors =           14
   GDM::PrEWSS: Max dev from orthonormality =   1.043679032086686E-012
   GDM::BFGS:   lowest Hinv e-value    0.221385384143957     
   GDM::BFGS:   highest Hinv e-value    1.18853460617618     
   GDM::      : max scaling in EWCs is          2.67109866046842     
   GDM::      : max rotation in step is       -3.342332475129213E-009
   GDM::        grad.step =  -2.060280800990411E-016
   ------- Leaving GDM -- hopefully with a step in the right direction! --------
 
   18    -717.2219078860      4.80E-09 Convergence criterion met
 ---------------------------------------
 One-Electron    Energy = -1619.4400399991
 Total Coulomb   Energy =   663.5073545058
 Alpha Exchange  Energy =    -6.0293735619
 Beta  Exchange  Energy =    -6.0293735619
 DFT   Exchange  Energy =   -48.2040588065
 DFT Correlation Energy =    -2.9248794993
 Nuclear Repu.   Energy =   301.8984630368
 Nuclear Attr.   Energy = -2288.0646301326
 Kinetic         Energy =   668.6245901335
 SCF time:  CPU 83.28 s  wall 11.23 s
 SCF   energy in the final basis set = -717.2219078860
 Total energy in the final basis set = -717.2219078860
 
 --------------------------------------------------------------
 
                    Orbital Energies (a.u.)
 --------------------------------------------------------------
 
 Alpha MOs
 -- Occupied --
-88.810 -19.175 -19.175 -19.136  -7.888  -5.849  -5.846  -5.846
 -2.106  -2.102  -1.325  -1.312  -1.309  -1.308  -1.300  -1.293
 -0.930  -0.926  -0.858  -0.630  -0.409  -0.406  -0.393  -0.392
 -0.366  -0.365  -0.328  -0.313  -0.307  -0.260  -0.258  -0.243
 -- Virtual --
 -0.172  -0.141  -0.141  -0.104  -0.092  -0.075  -0.050  -0.040
 -0.032  -0.013  -0.004   0.004   0.013   0.021   0.031   0.033
  0.052   0.076   0.092   0.101   0.105   0.108   0.110   0.126
  0.137   0.143   0.153   0.163   0.186   0.190   0.196   0.203
  0.204   0.214   0.220   0.233   0.236   0.262   0.267   0.270
  0.276   0.286   0.326   0.358   0.361   0.419   0.444   0.497
  0.573   0.579   0.641   0.650   0.707   0.777   0.834   0.846
  0.878   0.929   0.940   1.108   1.150   1.185   1.193   1.226
  1.247   1.267   1.272   1.295   1.635   1.705   1.720   1.753
  1.760   1.762   1.781   1.797   1.805   1.816   1.816   1.838
  1.861   1.866   1.867   1.940   2.027   2.063  11.579  14.172
 --------------------------------------------------------------
 
          Ground-State Mulliken Net Atomic Charges

     Atom                 Charge (a.u.)
  ----------------------------------------
      1 Zr                    1.296708
      2 S                    -0.372851
      3 O                    -1.006258
      4 O                    -1.006163
      5 Zr                    1.646249
      6 O                    -0.557686
  ----------------------------------------
  Sum of atomic charges =     0.000000

 -----------------------------------------------------------------
                    Cartesian Multipole Moments
 -----------------------------------------------------------------
    Charge (ESU x 10^10)
                 0.0000
    Dipole Moment (Debye)
         X      -2.5658      Y      -0.0030      Z       0.0000
       Tot       2.5658
    Quadrupole Moments (Debye-Ang)
        XX    -115.8286     XY      -0.0083     YY     -82.5949
        XZ       0.0000     YZ       0.0000     ZZ     -63.2341
    Octopole Moments (Debye-Ang^2)
       XXX     -56.1294    XXY      -0.0544    XYY     -20.5583
       YYY      -0.0402    XXZ       0.0000    XYZ       0.0000
       YYZ       0.0000    XZZ     -23.0107    YZZ      -0.0140
       ZZZ       0.0000
    Hexadecapole Moments (Debye-Ang^3)
      XXXX   -3059.2671   XXXY       0.0946   XXYY    -415.4912
      XYYY      -0.0199   YYYY    -274.5669   XXXZ       0.0000
      XXYZ       0.0000   XYYZ       0.0000   YYYZ       0.0000
      XXZZ    -371.8867   XYZZ      -0.0032   YYZZ     -54.7400
      XZZZ       0.0000   YZZZ       0.0000   ZZZZ     -79.3495
 -----------------------------------------------------------------
 Calculating analytic gradient of the SCF energy
 Gradient of SCF Energy
            1           2           3           4           5           6
    1   0.0000624   0.0000189  -0.0000102  -0.0000083  -0.0000500  -0.0000128
    2  -0.0000094   0.0000070  -0.0000401   0.0000414  -0.0000060   0.0000072
    3  -0.0000000   0.0000000  -0.0000000   0.0000000   0.0000000   0.0000000
 Max gradient component =       6.240E-05
 RMS gradient           =       2.430E-05
 Gradient time:  CPU 17.44 s  wall 2.35 s
 Geometry Optimization Parameters
   NAtoms,    NIC,     NZ,  NCons,   NDum,   NFix, NCnnct, MaxDiis
        6      48       0       0       0       0       0       0

 Cartesian Hessian Update
 Hessian Updated using BFGS Update


** GEOMETRY OPTIMIZATION IN DELOCALIZED INTERNAL COORDINATES **
   Searching for a Minimum

   Optimization Cycle:   7

                       Coordinates (Angstroms)
     ATOM                X               Y               Z
      1  Zr        1.2584553087   -0.0003287184    0.0000000000
      2  S         3.5345434424    0.0005725528    0.0000000000
      3  O        -0.2332882702   -1.3645695895    0.0000000000
      4  O        -0.2323331564    1.3645215561    0.0000000000
      5  Zr       -1.7720849881    0.0003918943    0.0000000000
      6  O        -3.5701323363    0.0008723047    0.0000000000
   Point Group: c1    Number of degrees of freedom:    12


   Energy is   -717.221907886

 Hessian Updated using BFGS Update

  9 Hessian modes will be used to form the next step
  Hessian Eigenvalues:
     0.082469    0.167928    0.186648    0.202124    0.207395    0.225183
     0.225917    0.238469    0.413709

 Minimum Search - Taking Simple RFO Step
 Searching for Lamda that Minimizes Along All modes
 Value Taken    Lamda =   0.00000000
 Step Taken.  Stepsize is  0.000479

                             Maximum     Tolerance    Cnvgd?
         Gradient           0.000047      0.000300     YES
         Displacement       0.000351      0.001200     YES
         Energy change     -0.000001      0.000001      NO


                       Distance Matrix (Angstroms)
             Zr(  1)   S (  2)   O (  3)   O (  4)   Zr(  5)
   S (  2)  2.276088
   O (  3)  2.021497  4.007514
   O (  4)  2.021204  4.006210  2.729091
   Zr(  5)  3.030540  5.306628  2.056943  2.057106
   O (  6)  4.828588  7.104676  3.605407  3.605613  1.798047
 
 Final energy is   -717.221907886046     


 ******************************
 **  OPTIMIZATION CONVERGED  **
 ******************************

                       Coordinates (Angstroms)
     ATOM                X               Y               Z
      1  Zr        1.2584553087   -0.0003287184    0.0000000000
      2  S         3.5345434424    0.0005725528    0.0000000000
      3  O        -0.2332882702   -1.3645695895    0.0000000000
      4  O        -0.2323331564    1.3645215561    0.0000000000
      5  Zr       -1.7720849881    0.0003918943    0.0000000000
      6  O        -3.5701323363    0.0008723047    0.0000000000

Z-matrix Print:
$molecule
0 1
Zr
O  1 2.021204
O  1 2.021497 2 84.918583
Zr 3 2.056943 1 95.982176 2 0.000000 0
O  4 1.798047 3 138.441266 1 -180.000000 0
S  1 2.276088 2 137.502511 3 -180.000000 0
$end

 
 --------------------------------------------------------------
 
                    Orbital Energies (a.u.)
 --------------------------------------------------------------
 
 Alpha MOs
 -- Occupied --
-88.810 -19.175 -19.175 -19.136  -7.888  -5.849  -5.846  -5.846
 -2.106  -2.102  -1.325  -1.312  -1.309  -1.308  -1.300  -1.293
 -0.930  -0.926  -0.858  -0.630  -0.409  -0.406  -0.393  -0.392
 -0.366  -0.365  -0.328  -0.313  -0.307  -0.260  -0.258  -0.243
 -- Virtual --
 -0.172  -0.141  -0.141  -0.104  -0.092  -0.075  -0.050  -0.040
 -0.032  -0.013  -0.004   0.004   0.013   0.021   0.031   0.033
  0.052   0.076   0.092   0.101   0.105   0.108   0.110   0.126
  0.137   0.143   0.153   0.163   0.186   0.190   0.196   0.203
  0.204   0.214   0.220   0.233   0.236   0.262   0.267   0.270
  0.276   0.286   0.326   0.358   0.361   0.419   0.444   0.497
  0.573   0.579   0.641   0.650   0.707   0.777   0.834   0.846
  0.878   0.929   0.940   1.108   1.150   1.185   1.193   1.226
  1.247   1.267   1.272   1.295   1.635   1.705   1.720   1.753
  1.760   1.762   1.781   1.797   1.805   1.816   1.816   1.838
  1.861   1.866   1.867   1.940   2.027   2.063  11.579  14.172
 --------------------------------------------------------------
 
          Ground-State Mulliken Net Atomic Charges

     Atom                 Charge (a.u.)
  ----------------------------------------
      1 Zr                    1.296708
      2 S                    -0.372851
      3 O                    -1.006258
      4 O                    -1.006163
      5 Zr                    1.646249
      6 O                    -0.557686
  ----------------------------------------
  Sum of atomic charges =     0.000000

 -----------------------------------------------------------------
                    Cartesian Multipole Moments
 -----------------------------------------------------------------
    Charge (ESU x 10^10)
                 0.0000
    Dipole Moment (Debye)
         X      -2.5658      Y      -0.0030      Z       0.0000
       Tot       2.5658
    Quadrupole Moments (Debye-Ang)
        XX    -115.8286     XY      -0.0083     YY     -82.5949
        XZ       0.0000     YZ       0.0000     ZZ     -63.2341
    Octopole Moments (Debye-Ang^2)
       XXX     -56.1294    XXY      -0.0544    XYY     -20.5583
       YYY      -0.0402    XXZ       0.0000    XYZ       0.0000
       YYZ       0.0000    XZZ     -23.0107    YZZ      -0.0140
       ZZZ       0.0000
    Hexadecapole Moments (Debye-Ang^3)
      XXXX   -3059.2671   XXXY       0.0946   XXYY    -415.4912
      XYYY      -0.0199   YYYY    -274.5669   XXXZ       0.0000
      XXYZ       0.0000   XYYZ       0.0000   YYYZ       0.0000
      XXZZ    -371.8867   XYZZ      -0.0032   YYZZ     -54.7400
      XZZZ       0.0000   YZZZ       0.0000   ZZZZ     -79.3495
 -----------------------------------------------------------------
Archival summary:
1\1\hpc3935\OPT\ProcedureUnspecified\BasisUnspecified\r213(+,1)\liqiuy\FriJan1719:01:242020FriJan1719:01:242020\0\\#,OPT,ProcedureUnspecified,BasisUnspecified,\\56,1\Zr\O,1,2.0212\O,1,2.0215,2,84.9186\Zr,3,2.05694,1,95.9822,2,0,0\O,4,1.79805,3,138.441,1,-180,0\S,1,2.27609,2,137.503,3,-180,0\\\@

 Total job time:  100.87s(wall), 746.59s(cpu) 
 Fri Jan 17 19:01:24 2020

        *************************************************************
        *                                                           *
        *  Thank you very much for using Q-Chem.  Have a nice day.  *
        *                                                           *
        *************************************************************


0 sent ACK to 0 
now end server 0 ... 
cleanup process ... done
