
Running Job 1 of 2 ZrOx.in
qchem ZrOx.in_58619.0 /tmp/5732540.priya/ZrOx.save/ 1
/usr/usc/qchem/4.4/bin/mpi/mpirun_qchem -machinefile /usr/usc/qchem/4.4/bin/mpi/machines -np 1 /usr/usc/qchem/4.4/exe/qcprog.exe ZrOx.in_58619.0 /tmp/5732540.priya/ZrOx.save/

Process 0 of 1 is on hpc3447.hpcc.usc.edu - thread support 0
initial socket setup ...start
initial socket setup ...done 
now start server 0 ... 
Check license passed

                  Welcome to Q-Chem
     A Quantum Leap Into The Future Of Chemistry


 Q-Chem 4.4, Q-Chem, Inc., Pleasanton, CA (2016)

 Y. Shao,  Z. Gan,  E. Epifanovsky,  A. T. B. Gilbert,  M. Wormit,  
 J. Kussmann,  A. W. Lange,  A. Behn,  J. Deng,  X. Feng,  D. Ghosh,  
 M. Goldey,  P. R. Horn,  L. D. Jacobson,  I. Kaliman,  F.Rob,  
 R. Z. Khaliullin,  T. Kus,  A. Landau,  J. Liu,  E. I. Proynov,  Y. M. Rhee,  
 R. M. Richard,  M. A. Rohrdanz,  R. P. Steele,  E. J. Sundstrom,  
 H. L. Woodcock III,  P. M. Zimmerman,  D. Zuev,  B. Albrecht,  E. Alguire,  
 B. Austin,  S. A. Baeppler,  G. J. O. Beran,  Y. A. Bernard,  E. Berquist,  
 K. Brandhorst,  K. B. Bravaya,  S. T. Brown,  D. Casanova,  C.-M. Chang,  
 Y. Chen,  S. H. Chien,  K. D. Closser,  M. P. Coons,  D. L. Crittenden,  
 S. Dasgupta,  M. Diedenhofen,  R. A. DiStasio Jr.,  H. Do,  A. D. Dutoi,  
 R. G. Edgar,  P.-T. Fang,  S. Fatehi,  Q. Feng,  L. Fusti-Molnar,  
 A. Ghysels,  A. Golubeva-Zadorozhnaya,  J. Gomes,  A. Gunina,  
 M. W. D. Hanson-Heine,  P. H. P. Harbach,  A. W. Hauser,  E. G. Hohenstein,  
 Z. C. Holden,  K. Hui,  T.-C. Jagau,  H. Ji,  B. Kaduk,  K. Khistyaev,  
 Jaehoon Kim,  Jihan Kim,  R. A. King,  P. Klunzinger,  D. Kosenkov,  
 T. Kowalczyk,  C. M. Krauter,  A. Kunitsa,  K. U. Lao,  A. Laurent,  
 K. V. Lawler,  D. Lefrancois,  S. Lehtola,  S. V. Levchenko,  C. Y. Lin,  
 Y.-S. Lin,  F. Liu,  E. Livshits,  R. C. Lochan,  A. Luenser,  P. Manohar,  
 S. F. Manzer,  S.-P. Mao,  Y. Mao,  N. Mardirossian,  A. V. Marenich,  
 L. A. Martinez-Martinez,  S. A. Maurer,  N. J. Mayhall,  J.-M. Mewes,  
 A. F. Morrison,  K. Nanda,  C. M. Oana,  R. Olivares-Amaya,  D. P. O'Neill,  
 J. A. Parkhill,  T. M. Perrine,  R. Peverati,  P. A. Pieniazek,  F. Plasser,  
 A. Prociuk,  D. R. Rehn,  E. Rosta,  N. J. Russ,  N. Sergueev,  
 S. M. Sharada,  S. Sharma,  D. W. Small,  A. Sodt,  T. Stauch,  T. Stein,  
 D. Stuck,  Y.-C. Su,  A. J. W. Thom,  T. Tsuchimochi,  L. Vogt,  O. Vydrov,  
 T. Wang,  M. A. Watson,  J. Wenzel,  A. White,  C. F. Williams,  
 V. Vanovschi,  S. Yeganeh,  S. R. Yost,  Z.-Q. You,  I. Y. Zhang,  X. Zhang,  
 Y. Zhao,  B. R. Brooks,  G. K. L. Chan,  D. M. Chipman,  C. J. Cramer,  
 W. A. Goddard III,  M. S. Gordon,  W. J. Hehre,  A. Klamt,  
 H. F. Schaefer III,  M. W. Schmidt,  C. D. Sherrill,  D. G. Truhlar,  
 A. Warshel,  X. Xu,  A. Aspuru-Guzik,  R. Baer,  A. T. Bell,  N. A. Besley,  
 J.-D. Chai,  A. Dreuw,  B. D. Dunietz,  T. R. Furlani,  S. R. Gwaltney,  
 C.-P. Hsu,  Y. Jung,  J. Kong,  D. S. Lambrecht,  W. Liang,  C. Ochsenfeld,  
 V. A. Rassolov,  L. V. Slipchenko,  J. E. Subotnik,  T. Van Voorhis,  
 J. M. Herbert,  A. I. Krylov,  P. M. W. Gill,  M. Head-Gordon

 Contributors to earlier versions of Q-Chem not listed above: 
 R. D. Adamson,  J. Baker,  E. F. C. Byrd,  A. K. Chakraborty,  C.-L. Cheng,  
 H. Dachsel,  R. J. Doerksen,  G. Hawkins,  A. Heyden,  S. Hirata,  
 G. Kedziora,  F. J. Keil,  C. Kelley,  P. P. Korambath,  W. Kurlancheek,  
 A. M. Lee,  M. S. Lee,  D. Liotard,  I. Lotan,  P. E. Maslen,  N. Nair,  
 D. Neuhauser,  R. Olson,  B. Peters,  J. Ritchie,  N. E. Schultz,  
 N. Shenvi,  A. C. Simmonett,  K. S. Thanthiriwatte,  Q. Wu,  W. Zhang

 Please cite Q-Chem as follows:
 Y. Shao et al., Mol. Phys. 113, 184-215 (2015)
 DOI: 10.1080/00268976.2014.952696

 Q-Chem 4.4.1 for Intel X86 Linux

 Parts of Q-Chem use Armadillo 5.200.1 (Boston Tea Smuggler).
 http://arma.sourceforge.net/

 Q-Chem begins on Fri Jan 17 19:00:03 2020  

Host: 
0

     Scratch files written to /tmp/5732540.priya/ZrOx.save//
 Jul2716 11668_ 21447  21445 5558   
 Parallel job on  1  processors
Processing $rem in /usr/usc/qchem/4.4/config/preferences.
 MEM_TOTAL  2000 

Checking the input file for inconsistencies... 	...done.

--------------------------------------------------------------
User input:
--------------------------------------------------------------
$comment
--------------------------------------------------------
A SINGLE POINT DFT CALCULATION WITH BASIS SET PROJECTION
--------------------------------------------------------
$end

$molecule
0 1
Zr -2.08501 -0.31215 0.00000
O -2.71279 0.44163 -1.41033
O -2.71279 0.44163 1.41033
O -0.20886 -0.58882 0.00000
Zr 1.52702 0.22787 0.00000
O 1.83105 1.90953 0.00000
S 3.32837 -0.93147 0.00000
$end

$rem
JOBTYPE   SP
METHOD   B3LYP
BASIS   GEN
ECP   GEN
MAX_SCF_CYCLES   200
SCF_CONVERGENCE 8
SCF_PRINT 1
PDB_PRINT 2
THRESH 14
VARTHRESH 14
INCDFT FALSE
SYMMETRY False
Sym_ignore True
SCF_ALGORITHM GDM
XC_GRID 000128000302
DFT_D           EMPIRICAL_GRIMME3
DFT_D3_S6       1000
DFT_D3_RS6     1261
DFT_D3_S8      1703
DFT_D3_3BODY    FALSE
$end

$basis
O
6-31+G**
****
S
6-31+G**
****
Zr
LanL2DZ
****
$end

$ecp
Zr
LanL2DZ
****
$end

--------------------------------------------------------------
 ----------------------------------------------------------------
             Standard Nuclear Orientation (Angstroms)
    I     Atom           X                Y                Z
 ----------------------------------------------------------------
    1      Zr     -2.0850100000    -0.3121500000     0.0000000000
    2      O      -2.7127900000     0.4416300000    -1.4103300000
    3      O      -2.7127900000     0.4416300000     1.4103300000
    4      O      -0.2088600000    -0.5888200000     0.0000000000
    5      Zr      1.5270200000     0.2278700000     0.0000000000
    6      O       1.8310500000     1.9095300000     0.0000000000
    7      S       3.3283700000    -0.9314700000     0.0000000000
 ----------------------------------------------------------------
 Nuclear Repulsion Energy =   382.8405235482 hartrees
 There are       36 alpha and       36 beta electrons

 Q-Chem warning in module /home/scratch/svnadmin/11668_zgan/qchem/forms1/BasisType.C, line 1419:

 Setting pure/cartesian flag to 2111 for general basis


 Requested basis set is non-standard
 There are 42 shells and 138 basis functions

 Total QAlloc Memory Limit   2000 MB
 Mega-Array Size        61 MB
 MEM_STATIC part        62 MB

                       Distance Matrix (Angstroms)
             Zr(  1)   O (  2)   O (  3)   O (  4)   Zr(  5)   O (  6)
   O (  2)  1.717941
   O (  3)  1.717941  2.820660
   O (  4)  1.896440  3.052953  3.052953
   Zr(  5)  3.652175  4.473334  4.473334  1.918401
   O (  6)  4.502376  4.978980  4.978980  3.225366  1.708922
   S (  7)  5.448692  6.353743  6.353743  3.553787  2.142179  3.211425

 
 A cutoff of  1.0D-14 yielded    843 shell pairs
 There are      9240 function pairs (     10479 Cartesian)
 
 -------------------------------------------------------
 OpenMP Integral Computing Module                       
 Release: version 1.0, May 2013, Q-Chem Inc. Pittsburgh 
 -------------------------------------------------------
 Integral Job Info:
 Integral job number is                      11
 Integral operator is                         1
 short-range coefficients                     0
 long-range coefficients              100000000
 Omega coefficients                           0
 if combine SR and LR in K                    0
 Integral screening is                        0
 Integral computing path is                   2
 max size of driver memory is            800000
 size of driver memory is                593474
 size of scratch memory is             15166112
 max col of scratch BK array               1296
 max len of scratch array in speh3          155
 max len of scratch index in speh4           18
 max int batch size is                      520
 min int batch size is                       52
 fixed nKL is                                52
 max L of basis functions is                  2
 order of int derivative is                   0
 number of shells is                         42
 number of basis is                         147
 number of cartesian basis is               147
 number of contracted shell pairs           843
 number of primitive shell pairs           3823
 maxK2 (contraction) of shell pair           36
 max number of K2 of shell pair               1
 max number of CS2 of shell pair             70
 max number of PS2 of shell pair            348
 mem total for path MDJ                   38056
 -------------------------------------------------------
 Requested basis set is non-standard
 Compound shells will be simplified
 There are 58 shells and 138 basis functions
 A cutoff of  1.0D-14 yielded   1598 shell pairs
 There are      9190 function pairs (     10429 Cartesian)
 Smallest overlap matrix eigenvalue = 6.06E-04

 Scale SEOQF with 1.000000e-01/1.000000e-01/1.000000e-01

 Standard Electronic Orientation quadrupole field applied
 Nucleus-field energy     =     0.0000000146 hartrees
 Guess MOs from core Hamiltonian diagonalization
 A restricted hybrid HF-DFT SCF calculation will be
 performed using Geometric Direct Minimization
 Exchange:     0.2000 Hartree-Fock + 0.0800 Slater + 0.7200 B88
 Correlation:  0.1900 VWN1RPA + 0.8100 LYP
 Using Euler-Maclaurin-Lebedev (128,302) quadrature formula
 Dispersion:   Grimme D3
 SCF converges when RMS gradient is below 1.0E-08
 Maximum number of minimization steps = 200
 using 12 threads for integral computing 
 -------------------------------------------------------
 OpenMP BLAS3 based DFT computing Module                
 Release: version 1.0, May 2013, Q-Chem Inc. Pittsburgh 
 -------------------------------------------------------
 
   ------------------- Entering Geometric Direct Minimization ------------------
   GDM:         diagonal hessian shift is      0.000000000000000E+000
   GDM::PreWSS: input subspace size is                  1
   GDM::PreWSS: working subspace size set to            1
   GDM::PrEWSS: # of linearly dependent vectors =            0
   GDM::PrEWSS: Max dev from orthonormality =   2.220446049250313E-016
   GDM::BFGS:   lowest Hinv e-value     1.00000000000000     
   GDM::BFGS:   highest Hinv e-value    1.00000000000000     
   GDM::      : max scaling in EWCs is          1.41421356237309     
   GDM::      : max rotation in step is       -0.126140242197807     
   GDM::        grad.step =   -2.48934398260826     
   ------- Leaving GDM -- hopefully with a step in the right direction! --------
 
 ---------------------------------------
  Cycle       Energy        RMS Gradient
 ---------------------------------------
    1    -763.0480245595      2.04E+00  Gap = 0.00 eV  Descent step
 
   ------------------- Entering Geometric Direct Minimization ------------------
   GDM::trust : actual energy change is        -4.84456220814047     
   GDM::trust : predicted energy change was   -0.163350000000000     
   GDM::trust : updated trust radius is        0.330000000000000     
   GDM:         diagonal hessian shift is      0.000000000000000E+000
   GDM::PreWSS: input subspace size is                  2
   GDM::PreWSS: working subspace size set to            2
   GDM::PrEWSS: # of linearly dependent vectors =            0
   GDM::PrEWSS: Max dev from orthonormality =   7.466249840604178E-015
   GDM::BFGS:   lowest Hinv e-value    0.627204214084574     
   GDM::BFGS:   highest Hinv e-value    1.75300209579181     
   GDM::      : max scaling in EWCs is          1.41421356237309     
   GDM::      : max rotation in step is       -0.100224645972529     
   GDM::        grad.step =   -2.09899732914212     
   ------- Leaving GDM -- hopefully with a step in the right direction! --------
 
    2    -767.8925867676      1.39E+00  Gap = 56.70 eV  Descent step
 
   ------------------- Entering Geometric Direct Minimization ------------------
   GDM::trust : actual energy change is        -4.05200006572022     
   GDM::trust : predicted energy change was   -0.149879319303831     
   GDM::trust : updated trust radius is        0.330000000000000     
   GDM:         diagonal hessian shift is      0.000000000000000E+000
   GDM::PreWSS: input subspace size is                  3
   GDM::PreWSS: working subspace size set to            3
   GDM::PrEWSS: # of linearly dependent vectors =            0
   GDM::PrEWSS: Max dev from orthonormality =   3.581857033196911E-013
   GDM::BFGS:   lowest Hinv e-value    0.483537975269490     
   GDM::BFGS:   highest Hinv e-value    1.49838937631321     
   GDM::      : max scaling in EWCs is          2.82842712474619     
   GDM::      : max rotation in step is        0.155756488656388     
   GDM::        grad.step =   -2.11921864435546     
   ------- Leaving GDM -- hopefully with a step in the right direction! --------
 
    3    -771.9445868334      2.06E+00  Gap = 56.70 eV  Descent step
 
   ------------------- Entering Geometric Direct Minimization ------------------
   GDM::trust : actual energy change is        -4.00569283759683     
   GDM::trust : predicted energy change was   -0.161209074133788     
   GDM::trust : updated trust radius is        0.330000000000000     
   GDM:         diagonal hessian shift is      0.000000000000000E+000
   GDM::PreWSS: input subspace size is                  4
   GDM::PreWSS: working subspace size set to            4
   GDM::PrEWSS: # of linearly dependent vectors =            0
   GDM::PrEWSS: Max dev from orthonormality =   1.692342446735218E-012
   GDM::BFGS:   lowest Hinv e-value    0.388300922175581     
   GDM::BFGS:   highest Hinv e-value    1.61713198478213     
   GDM::      : max scaling in EWCs is          2.82842712474619     
   GDM::      : max rotation in step is       -0.173935677657382     
   GDM::        grad.step =   -1.74635792145325     
   ------- Leaving GDM -- hopefully with a step in the right direction! --------
 
    4    -775.9502796710      1.59E+00  Gap = 56.70 eV  Descent step
 
   ------------------- Entering Geometric Direct Minimization ------------------
   GDM::trust : actual energy change is        -3.22982629839544     
   GDM::trust : predicted energy change was   -0.176087004083517     
   GDM::trust : updated trust radius is        0.330000000000000     
   GDM:         diagonal hessian shift is      0.000000000000000E+000
   GDM::PreWSS: input subspace size is                  5
   GDM::PreWSS: working subspace size set to            5
   GDM::PrEWSS: # of linearly dependent vectors =            0
   GDM::PrEWSS: Max dev from orthonormality =   2.268830956442258E-012
   GDM::BFGS:   lowest Hinv e-value    0.346988369833852     
   GDM::BFGS:   highest Hinv e-value    2.15598611879004     
   GDM::      : max scaling in EWCs is          2.82842712474619     
   GDM::      : max rotation in step is        0.337489377025951     
   GDM::        grad.step =   -1.43200409128821     
   ------- Leaving GDM -- hopefully with a step in the right direction! --------
 
    5    -779.1801059694      1.57E+00  Gap = 56.70 eV  Descent step
 
   ------------------- Entering Geometric Direct Minimization ------------------
   GDM::trust : actual energy change is        -2.65995837365028     
   GDM::trust : predicted energy change was   -0.163633585912955     
   GDM::trust : updated trust radius is        0.330000000000000     
   GDM:         diagonal hessian shift is      0.000000000000000E+000
   GDM::PreWSS: input subspace size is                  6
   GDM::PreWSS: working subspace size set to            6
   GDM::PrEWSS: # of linearly dependent vectors =            0
   GDM::PrEWSS: Max dev from orthonormality =   1.782723274557085E-012
   GDM::BFGS:   lowest Hinv e-value    0.281512488992328     
   GDM::BFGS:   highest Hinv e-value    2.49168353367295     
   GDM::      : max scaling in EWCs is          2.82842712474619     
   GDM::      : max rotation in step is       -0.399667621606787     
   GDM::        grad.step =   -1.57978973292013     
   ------- Leaving GDM -- hopefully with a step in the right direction! --------
 
    6    -781.8400643430      2.05E+00  Gap = 56.70 eV  Descent step
 
   ------------------- Entering Geometric Direct Minimization ------------------
   GDM::trust : actual energy change is        -2.73903524736966     
   GDM::trust : predicted energy change was   -0.161579967167562     
   GDM::trust : updated trust radius is        0.330000000000000     
   GDM:         diagonal hessian shift is      0.000000000000000E+000
   GDM::PreWSS: input subspace size is                  7
   GDM::PreWSS: working subspace size set to            7
   GDM::PrEWSS: # of linearly dependent vectors =            0
   GDM::PrEWSS: Max dev from orthonormality =   5.765873889451711E-013
   GDM::BFGS:   lowest Hinv e-value    0.302989024608528     
   GDM::BFGS:   highest Hinv e-value    2.78499618955157     
   GDM::      : max scaling in EWCs is          2.82842712474619     
   GDM::      : max rotation in step is       -0.370946414709177     
   GDM::        grad.step =  -0.948139787602771     
   ------- Leaving GDM -- hopefully with a step in the right direction! --------
 
    7    -784.5790995904      1.14E+00  Gap = 56.70 eV  Descent step
 
   ------------------- Entering Geometric Direct Minimization ------------------
   GDM::trust : actual energy change is        -1.61687836904582     
   GDM::trust : predicted energy change was   -0.172251984143750     
   GDM::trust : updated trust radius is        0.330000000000000     
   GDM:         diagonal hessian shift is      0.000000000000000E+000
   GDM::PreWSS: input subspace size is                  8
   GDM::PreWSS: working subspace size set to            8
   GDM::PrEWSS: # of linearly dependent vectors =            0
   GDM::PrEWSS: Max dev from orthonormality =   3.245896607051435E-012
   GDM::BFGS:   lowest Hinv e-value    0.301708818217062     
   GDM::BFGS:   highest Hinv e-value    3.19383262075032     
   GDM::      : max scaling in EWCs is          2.82842712474619     
   GDM::      : max rotation in step is        0.394400509913042     
   GDM::        grad.step =  -0.763703117623459     
   ------- Leaving GDM -- hopefully with a step in the right direction! --------
 
    8    -786.1959779594      9.78E-01  Gap = 56.70 eV  Descent step
 
   ------------------- Entering Geometric Direct Minimization ------------------
   GDM::trust : actual energy change is        -1.31638988586712     
   GDM::trust : predicted energy change was   -0.166205733195994     
   GDM::trust : updated trust radius is        0.330000000000000     
   GDM:         diagonal hessian shift is      0.000000000000000E+000
   GDM::PreWSS: input subspace size is                  9
   GDM::PreWSS: working subspace size set to            9
   GDM::PrEWSS: # of linearly dependent vectors =            0
   GDM::PrEWSS: Max dev from orthonormality =   1.740010913131584E-012
   GDM::BFGS:   lowest Hinv e-value    0.280928307517594     
   GDM::BFGS:   highest Hinv e-value    3.54279003659609     
   GDM::      : max scaling in EWCs is          2.82842712474619     
   GDM::      : max rotation in step is       -0.196670332647122     
   GDM::        grad.step =  -0.567872404977328     
   ------- Leaving GDM -- hopefully with a step in the right direction! --------
 
    9    -787.5123678453      3.92E-01  Gap = 56.70 eV  Descent step
 
   ------------------- Entering Geometric Direct Minimization ------------------
   GDM::trust : actual energy change is       -0.951998748004371     
   GDM::trust : predicted energy change was   -0.166126959263672     
   GDM::trust : updated trust radius is        0.330000000000000     
   GDM:         diagonal hessian shift is      0.000000000000000E+000
   GDM::PreWSS: input subspace size is                 10
   GDM::PreWSS: working subspace size set to           10
   GDM::PrEWSS: # of linearly dependent vectors =            0
   GDM::PrEWSS: Max dev from orthonormality =   8.812789907552965E-013
   GDM::BFGS:   lowest Hinv e-value    0.260018963020771     
   GDM::BFGS:   highest Hinv e-value    3.87998050472658     
   GDM::      : max scaling in EWCs is          2.82842712474619     
   GDM::      : max rotation in step is        0.362087231358729     
   GDM::        grad.step =  -0.464430626279762     
   ------- Leaving GDM -- hopefully with a step in the right direction! --------
 
   10    -788.4643665933      5.46E-01  Gap = 56.70 eV  Descent step
 
   ------------------- Entering Geometric Direct Minimization ------------------
   GDM::trust : actual energy change is       -0.705266860514826     
   GDM::trust : predicted energy change was   -0.156814329214209     
   GDM::trust : updated trust radius is        0.330000000000000     
   GDM:         diagonal hessian shift is      0.000000000000000E+000
   GDM::PreWSS: input subspace size is                 11
   GDM::PreWSS: working subspace size set to           11
   GDM::PrEWSS: # of linearly dependent vectors =            0
   GDM::PrEWSS: Max dev from orthonormality =   1.080406597520067E-012
   GDM::BFGS:   lowest Hinv e-value    0.210952876359325     
   GDM::BFGS:   highest Hinv e-value    4.27925277665822     
   GDM::      : max scaling in EWCs is          2.82842712474619     
   GDM::      : max rotation in step is        0.222770092069046     
   GDM::        grad.step =  -0.333695960017258     
   ------- Leaving GDM -- hopefully with a step in the right direction! --------
 
   11    -789.1696334538      2.43E-01  Gap = 56.70 eV  Descent step
 
   ------------------- Entering Geometric Direct Minimization ------------------
   GDM::trust : actual energy change is       -0.484369501785181     
   GDM::trust : predicted energy change was   -0.189893078011700     
   GDM::trust : updated trust radius is        0.330000000000000     
   GDM:         diagonal hessian shift is      0.000000000000000E+000
   GDM::PreWSS: input subspace size is                 12
   GDM::PreWSS: working subspace size set to           12
   GDM::PrEWSS: # of linearly dependent vectors =            0
   GDM::PrEWSS: Max dev from orthonormality =   2.767414769566656E-012
   GDM::BFGS:   lowest Hinv e-value    0.163672612290861     
   GDM::BFGS:   highest Hinv e-value    4.05691532482855     
   GDM::      : max scaling in EWCs is          2.82842712474619     
   GDM::      : max rotation in step is        0.400881995991089     
   GDM::        grad.step =  -0.304097833110723     
   ------- Leaving GDM -- hopefully with a step in the right direction! --------
 
   12    -789.6540029556      3.96E-01  Gap = 56.70 eV  Descent step
 
   ------------------- Entering Geometric Direct Minimization ------------------
   GDM::trust : actual energy change is       -5.144430597545124E-002
   GDM::trust : predicted energy change was   -0.220779579712074     
   GDM::trust : updated trust radius is        0.330000000000000     
   GDM:         diagonal hessian shift is      0.000000000000000E+000
   GDM::PreWSS: input subspace size is                 13
   GDM::PreWSS: working subspace size set to           13
   GDM::PrEWSS: # of linearly dependent vectors =            0
   GDM::PrEWSS: Max dev from orthonormality =   1.846512526215704E-012
   GDM::BFGS:   lowest Hinv e-value    0.137654605935359     
   GDM::BFGS:   highest Hinv e-value    5.12219010104963     
   GDM::      : max scaling in EWCs is          2.82842712474619     
   GDM::      : max rotation in step is       -0.216692536239902     
   GDM::        grad.step =  -0.558098884005777     
   ------- Leaving GDM -- hopefully with a step in the right direction! --------
 
   13    -789.7054472616      7.69E-01  Gap = 56.70 eV  Descent step
 
   ------------------- Entering Geometric Direct Minimization ------------------
   GDM::trust : actual energy change is       -0.462616918646631     
   GDM::trust : predicted energy change was   -0.414108638386735     
   GDM::trust : updated trust radius is        0.330000000000000     
   GDM:         diagonal hessian shift is      0.000000000000000E+000
   GDM::PreWSS: input subspace size is                 14
   GDM::PreWSS: working subspace size set to           14
   GDM::PrEWSS: # of linearly dependent vectors =            0
   GDM::PrEWSS: Max dev from orthonormality =   3.039041240882057E-012
   GDM::BFGS:   lowest Hinv e-value    7.584606651538565E-002
   GDM::BFGS:   highest Hinv e-value    4.60790708335187     
   GDM::      : max scaling in EWCs is          2.82842712474619     
   GDM::      : max rotation in step is        0.324754383106251     
   GDM::        grad.step =  -0.319064463694434     
   ------- Leaving GDM -- hopefully with a step in the right direction! --------
 
   14    -790.1680641802      3.64E-01  Gap = 56.70 eV  Descent step
 
   ------------------- Entering Geometric Direct Minimization ------------------
   GDM::trust : actual energy change is        7.250286097519165E-002
   GDM::trust : predicted energy change was   -0.461728001862069     
   GDM::trust : updated trust radius is        0.108900000000000     
   GDM::search:  On step            1 .  The current bracket is:
       left   : x =  0.0000E+00, e =      -790.1680641802, g = -0.4596E+00
       current: x =  0.6942E+00, e =      -790.0955613192, g =  0.6483E+00
       right  : x =  0.1000E+04, e =      1000.0000000000, g =  0.1000E+04
       next   : x =  0.2828E+00
   GDM::      : max rotation in step is        0.132311324962620     
   ------- Leaving GDM -- hopefully with a step in the right direction! --------
 
   15    -790.0955613192      2.80E-01  Gap = 0.00 eV  Line search: overstep
 
   ------------------- Entering Geometric Direct Minimization ------------------
   GDM::trust : actual energy change is       -0.157956389721221     
   GDM::trust : predicted energy change was   -0.461728001862069     
   GDM::trust : updated trust radius is        0.108900000000000     
   GDM:         diagonal hessian shift is      0.000000000000000E+000
   GDM::PreWSS: input subspace size is                 15
   GDM::PreWSS: working subspace size set to           15
   GDM::PrEWSS: # of linearly dependent vectors =            0
   GDM::PrEWSS: Max dev from orthonormality =   7.189492057246838E-013
   GDM::BFGS:   lowest Hinv e-value    0.161635248189919     
   GDM::BFGS:   highest Hinv e-value    5.15216541929355     
   GDM::      : max scaling in EWCs is          2.82842712474619     
   GDM::      : max rotation in step is        5.948875246580727E-002
   GDM::        grad.step =  -7.871322646027883E-002
   ------- Leaving GDM -- hopefully with a step in the right direction! --------
 
   16    -790.3260205699      1.62E-01  Gap = 0.00 eV  Descent step
 
   ------------------- Entering Geometric Direct Minimization ------------------
   GDM::trust : actual energy change is       -0.148941832422111     
   GDM::trust : predicted energy change was   -2.097754963659332E-002
   GDM::trust : updated trust radius is        0.330000000000000     
   GDM:         diagonal hessian shift is      0.000000000000000E+000
   GDM::PreWSS: input subspace size is                 16
   GDM::PreWSS: working subspace size set to           16
   GDM::PrEWSS: # of linearly dependent vectors =            0
   GDM::PrEWSS: Max dev from orthonormality =   1.097115454040676E-012
   GDM::BFGS:   lowest Hinv e-value    0.107260370703140     
   GDM::BFGS:   highest Hinv e-value    6.38331274831338     
   GDM::      : max scaling in EWCs is          2.82842712474619     
   GDM::      : max rotation in step is        0.257183995035684     
   GDM::        grad.step =  -0.222961447270088     
   ------- Leaving GDM -- hopefully with a step in the right direction! --------
 
   17    -790.4749624024      1.86E-01  Gap = 0.00 eV  Descent step
 
   ------------------- Entering Geometric Direct Minimization ------------------
   GDM::trust : actual energy change is       -0.354011296383192     
   GDM::trust : predicted energy change was   -0.124741019910932     
   GDM::trust : updated trust radius is        0.330000000000000     
   GDM:         diagonal hessian shift is      0.000000000000000E+000
   GDM::PreWSS: input subspace size is                 17
   GDM::PreWSS: working subspace size set to           17
   GDM::PrEWSS: # of linearly dependent vectors =            0
   GDM::PrEWSS: Max dev from orthonormality =   1.895266929508033E-012
   GDM::BFGS:   lowest Hinv e-value    0.135846295852734     
   GDM::BFGS:   highest Hinv e-value    5.46869237550160     
   GDM::      : max scaling in EWCs is          2.82842712474619     
   GDM::      : max rotation in step is        0.344564027485614     
   GDM::        grad.step =  -0.230626107395772     
   ------- Leaving GDM -- hopefully with a step in the right direction! --------
 
   18    -790.8289736987      2.86E-01  Gap = 0.00 eV  Descent step
 
   ------------------- Entering Geometric Direct Minimization ------------------
   GDM::trust : actual energy change is       -0.342721934452470     
   GDM::trust : predicted energy change was   -0.203571394096273     
   GDM::trust : updated trust radius is        0.330000000000000     
   GDM:         diagonal hessian shift is      0.000000000000000E+000
   GDM::PreWSS: input subspace size is                 18
   GDM::PreWSS: working subspace size set to           18
   GDM::PrEWSS: # of linearly dependent vectors =            0
   GDM::PrEWSS: Max dev from orthonormality =   1.329615237355419E-012
   GDM::BFGS:   lowest Hinv e-value    0.125033988243189     
   GDM::BFGS:   highest Hinv e-value    5.74500261359666     
   GDM::      : max scaling in EWCs is          2.82842712474619     
   GDM::      : max rotation in step is        0.325890777615497     
   GDM::        grad.step =  -0.225910777981355     
   ------- Leaving GDM -- hopefully with a step in the right direction! --------
 
   19    -791.1716956332      2.39E-01  Gap = 0.00 eV  Descent step
 
   ------------------- Entering Geometric Direct Minimization ------------------
   GDM::trust : actual energy change is        7.810646268353594E-002
   GDM::trust : predicted energy change was   -0.297098121486488     
   GDM::trust : updated trust radius is        0.108900000000000     
   GDM::search:  On step            1 .  The current bracket is:
       left   : x =  0.0000E+00, e =      -791.1716956332, g = -0.3572E+00
       current: x =  0.6324E+00, e =      -791.0935891705, g =  0.4844E+00
       right  : x =  0.1000E+04, e =      1000.0000000000, g =  0.1000E+04
       next   : x =  0.2350E+00
   GDM::      : max rotation in step is        0.121082342151143     
   ------- Leaving GDM -- hopefully with a step in the right direction! --------
 
   20    -791.0935891705      2.83E-01  Gap = 0.00 eV  Line search: overstep
 
   ------------------- Entering Geometric Direct Minimization ------------------
   GDM::trust : actual energy change is       -9.736067294977602E-002
   GDM::trust : predicted energy change was   -0.297098121486488     
   GDM::trust : updated trust radius is        0.108900000000000     
   GDM:         diagonal hessian shift is      0.000000000000000E+000
   GDM::PreWSS: input subspace size is                 19
   GDM::PreWSS: working subspace size set to           18
   GDM::PrEWSS: # of linearly dependent vectors =            0
   GDM::PrEWSS: Max dev from orthonormality =   1.455400036598498E-012
   GDM::BFGS:   lowest Hinv e-value    9.353470048526644E-002
   GDM::BFGS:   highest Hinv e-value    5.48331262477072     
   GDM::      : max scaling in EWCs is          2.82842712474619     
   GDM::      : max rotation in step is        0.169375717146528     
   GDM::        grad.step =  -5.674310776887875E-002
   ------- Leaving GDM -- hopefully with a step in the right direction! --------
 
   21    -791.2690563061      2.87E-01  Gap = 0.00 eV  Descent step
 
   ------------------- Entering Geometric Direct Minimization ------------------
   GDM::trust : actual energy change is       -3.547684238321835E-002
   GDM::trust : predicted energy change was   -3.878280989515379E-002
   GDM::trust : updated trust radius is        0.330000000000000     
   GDM:         diagonal hessian shift is      0.000000000000000E+000
   GDM::PreWSS: input subspace size is                 19
   GDM::PreWSS: working subspace size set to           18
   GDM::PrEWSS: # of linearly dependent vectors =            0
   GDM::PrEWSS: Max dev from orthonormality =   5.331238922545722E-013
   GDM::BFGS:   lowest Hinv e-value    0.100554738915720     
   GDM::BFGS:   highest Hinv e-value    5.84721072464415     
   GDM::      : max scaling in EWCs is          2.82842712474619     
   GDM::      : max rotation in step is       -0.395998133970239     
   GDM::        grad.step =  -0.235055195614172     
   ------- Leaving GDM -- hopefully with a step in the right direction! --------
 
   22    -791.3045331485      4.16E-01  Gap = 0.00 eV  Descent step
 
   ------------------- Entering Geometric Direct Minimization ------------------
   GDM::trust : actual energy change is        0.194950959038692     
   GDM::trust : predicted energy change was   -0.524809309710195     
   GDM::trust : updated trust radius is        0.108900000000000     
   GDM::search:  On step            1 .  The current bracket is:
       left   : x =  0.0000E+00, e =      -791.3045331485, g = -0.3820E+00
       current: x =  0.6154E+00, e =      -791.1095821895, g =  0.4896E+00
       right  : x =  0.1000E+04, e =      1000.0000000000, g =  0.1000E+04
       next   : x =  0.1682E+00
   GDM::      : max rotation in step is       -0.108232658807366     
   ------- Leaving GDM -- hopefully with a step in the right direction! --------
 
   23    -791.1095821895      4.45E-02  Gap = 0.00 eV  Line search: overstep
 
   ------------------- Entering Geometric Direct Minimization ------------------
   GDM::trust : actual energy change is       -6.814509378841649E-002
   GDM::trust : predicted energy change was   -0.524809309710195     
   GDM::trust : updated trust radius is        0.108900000000000     
   GDM:         diagonal hessian shift is      0.000000000000000E+000
   GDM::PreWSS: input subspace size is                 19
   GDM::PreWSS: working subspace size set to           18
   GDM::PrEWSS: # of linearly dependent vectors =            0
   GDM::PrEWSS: Max dev from orthonormality =   1.448390019032075E-013
   GDM::BFGS:   lowest Hinv e-value    5.830904889918236E-002
   GDM::BFGS:   highest Hinv e-value    5.56545639516020     
   GDM::      : max scaling in EWCs is          2.82842712474619     
   GDM::      : max rotation in step is       -0.121819590908691     
   GDM::        grad.step =  -4.648759560401843E-002
   ------- Leaving GDM -- hopefully with a step in the right direction! --------
 
   24    -791.3726782423      1.98E-01  Gap = 0.00 eV  Descent step
 
   ------------------- Entering Geometric Direct Minimization ------------------
   GDM::trust : actual energy change is       -4.196210306690773E-002
   GDM::trust : predicted energy change was   -4.317034201606767E-002
   GDM::trust : updated trust radius is        0.330000000000000     
   GDM:         diagonal hessian shift is      0.000000000000000E+000
   GDM::PreWSS: input subspace size is                 19
   GDM::PreWSS: working subspace size set to           18
   GDM::PrEWSS: # of linearly dependent vectors =            0
   GDM::PrEWSS: Max dev from orthonormality =   2.187174052981078E-013
   GDM::BFGS:   lowest Hinv e-value    9.136738170512335E-002
   GDM::BFGS:   highest Hinv e-value    5.86191456929755     
   GDM::      : max scaling in EWCs is          2.82842712474619     
   GDM::      : max rotation in step is       -0.374478069692573     
   GDM::        grad.step =  -0.230513710337380     
   ------- Leaving GDM -- hopefully with a step in the right direction! --------
 
   25    -791.4146403454      3.94E-01  Gap = 0.00 eV  Descent step
 
   ------------------- Entering Geometric Direct Minimization ------------------
   GDM::trust : actual energy change is        0.105510616201855     
   GDM::trust : predicted energy change was   -0.545018750703285     
   GDM::trust : updated trust radius is        0.108900000000000     
   GDM::search:  On step            1 .  The current bracket is:
       left   : x =  0.0000E+00, e =      -791.4146403454, g = -0.3440E+00
       current: x =  0.6701E+00, e =      -791.3091297292, g =  0.3329E+00
       right  : x =  0.1000E+04, e =      1000.0000000000, g =  0.1000E+04
       next   : x =  0.2299E+00
   GDM::      : max rotation in step is       -0.128446547566752     
   ------- Leaving GDM -- hopefully with a step in the right direction! --------
 
   26    -791.3091297292      8.65E-02  Gap = 0.00 eV  Line search: overstep
 
   ------------------- Entering Geometric Direct Minimization ------------------
   GDM::trust : actual energy change is       -7.708196187275007E-002
   GDM::trust : predicted energy change was   -0.545018750703285     
   GDM::trust : updated trust radius is        0.108900000000000     
   GDM:         diagonal hessian shift is      0.000000000000000E+000
   GDM::PreWSS: input subspace size is                 19
   GDM::PreWSS: working subspace size set to           18
   GDM::PrEWSS: # of linearly dependent vectors =            0
   GDM::PrEWSS: Max dev from orthonormality =   1.298891549872394E-013
   GDM::BFGS:   lowest Hinv e-value    5.473498520859940E-002
   GDM::BFGS:   highest Hinv e-value    5.53534342807797     
   GDM::      : max scaling in EWCs is          2.82842712474619     
   GDM::      : max rotation in step is       -0.148828600218578     
   GDM::        grad.step =  -6.711916902892053E-002
   ------- Leaving GDM -- hopefully with a step in the right direction! --------
 
   27    -791.4917223073      2.98E-01  Gap = 0.00 eV  Descent step
 
   ------------------- Entering Geometric Direct Minimization ------------------
   GDM::trust : actual energy change is       -3.672979496730022E-002
   GDM::trust : predicted energy change was   -6.917342698303604E-002
   GDM::trust : updated trust radius is        0.330000000000000     
   GDM:         diagonal hessian shift is      0.000000000000000E+000
   GDM::PreWSS: input subspace size is                 19
   GDM::PreWSS: working subspace size set to           18
   GDM::PrEWSS: # of linearly dependent vectors =            0
   GDM::PrEWSS: Max dev from orthonormality =   2.867601989198221E-013
   GDM::BFGS:   lowest Hinv e-value    9.652597519928251E-002
   GDM::BFGS:   highest Hinv e-value    5.96446837022204     
   GDM::      : max scaling in EWCs is          2.82842712474619     
   GDM::      : max rotation in step is       -0.377190837414016     
   GDM::        grad.step =  -0.258920122094263     
   ------- Leaving GDM -- hopefully with a step in the right direction! --------
 
   28    -791.5284521022      4.68E-01  Gap = 93.59 eV  Descent step
 
   ------------------- Entering Geometric Direct Minimization ------------------
   GDM::trust : actual energy change is        0.112585741608882     
   GDM::trust : predicted energy change was   -0.504316128061417     
   GDM::trust : updated trust radius is        0.108900000000000     
   GDM::search:  On step            1 .  The current bracket is:
       left   : x =  0.0000E+00, e =      -791.5284521022, g = -0.3980E+00
       current: x =  0.6505E+00, e =      -791.4158663606, g =  0.3971E+00
       right  : x =  0.1000E+04, e =      1000.0000000000, g =  0.1000E+04
       next   : x =  0.2267E+00
   GDM::      : max rotation in step is       -0.131441125454365     
   ------- Leaving GDM -- hopefully with a step in the right direction! --------
 
   29    -791.4158663606      7.52E-02  Gap = 93.59 eV  Line search: overstep
 
   ------------------- Entering Geometric Direct Minimization ------------------
   GDM::trust : actual energy change is       -8.952284644885822E-002
   GDM::trust : predicted energy change was   -0.504316128061417     
   GDM::trust : updated trust radius is        0.108900000000000     
   GDM:         diagonal hessian shift is      0.000000000000000E+000
   GDM::PreWSS: input subspace size is                 19
   GDM::PreWSS: working subspace size set to           18
   GDM::PrEWSS: # of linearly dependent vectors =            0
   GDM::PrEWSS: Max dev from orthonormality =   6.587022594040093E-013
   GDM::BFGS:   lowest Hinv e-value    5.594447353240612E-002
   GDM::BFGS:   highest Hinv e-value    5.59402150840229     
   GDM::      : max scaling in EWCs is          2.82842712474619     
   GDM::      : max rotation in step is       -0.149875547173961     
   GDM::        grad.step =  -6.223482895312845E-002
   ------- Leaving GDM -- hopefully with a step in the right direction! --------
 
   30    -791.6179749487      2.78E-01  Gap = 93.59 eV  Descent step
 
   ------------------- Entering Geometric Direct Minimization ------------------
   GDM::trust : actual energy change is       -4.518166203411056E-002
   GDM::trust : predicted energy change was   -5.146646160849644E-002
   GDM::trust : updated trust radius is        0.330000000000000     
   GDM:         diagonal hessian shift is      0.000000000000000E+000
   GDM::PreWSS: input subspace size is                 19
   GDM::PreWSS: working subspace size set to           18
   GDM::PrEWSS: # of linearly dependent vectors =            0
   GDM::PrEWSS: Max dev from orthonormality =   1.170688546103804E-012
   GDM::BFGS:   lowest Hinv e-value    9.061610810067200E-002
   GDM::BFGS:   highest Hinv e-value    5.67878415979190     
   GDM::      : max scaling in EWCs is          2.82842712474619     
   GDM::      : max rotation in step is       -0.360664972147840     
   GDM::        grad.step =  -0.226322996741991     
   ------- Leaving GDM -- hopefully with a step in the right direction! --------
 
   31    -791.6631566107      3.77E-01  Gap = 93.59 eV  Descent step
 
   ------------------- Entering Geometric Direct Minimization ------------------
   GDM::trust : actual energy change is        0.206985974041118     
   GDM::trust : predicted energy change was   -0.527997827811654     
   GDM::trust : updated trust radius is        0.108900000000000     
   GDM::search:  On step            1 .  The current bracket is:
       left   : x =  0.0000E+00, e =      -791.6631566107, g = -0.3422E+00
       current: x =  0.6614E+00, e =      -791.4561706367, g =  0.4289E+00
       right  : x =  0.1000E+04, e =      1000.0000000000, g =  0.1000E+04
       next   : x =  0.1727E+00
   GDM::      : max rotation in step is       -9.419003854090961E-002
   ------- Leaving GDM -- hopefully with a step in the right direction! --------
 
   32    -791.4561706367      6.82E-02  Gap = 93.59 eV  Line search: overstep
 
   ------------------- Entering Geometric Direct Minimization ------------------
   GDM::trust : actual energy change is       -6.143132328747924E-002
   GDM::trust : predicted energy change was   -0.527997827811654     
   GDM::trust : updated trust radius is        0.108900000000000     
   GDM:         diagonal hessian shift is      0.000000000000000E+000
   GDM::PreWSS: input subspace size is                 19
   GDM::PreWSS: working subspace size set to           18
   GDM::PrEWSS: # of linearly dependent vectors =            0
   GDM::PrEWSS: Max dev from orthonormality =   1.103422908599327E-012
   GDM::BFGS:   lowest Hinv e-value    6.810253259534325E-002
   GDM::BFGS:   highest Hinv e-value    5.66940167746078     
   GDM::      : max scaling in EWCs is          2.82842712474619     
   GDM::      : max rotation in step is       -0.165315087823173     
   GDM::        grad.step =  -4.954717738978544E-002
   ------- Leaving GDM -- hopefully with a step in the right direction! --------
 
   33    -791.7245879340      2.44E-01  Gap = 93.59 eV  Descent step
 
   ------------------- Entering Geometric Direct Minimization ------------------
   GDM::trust : actual energy change is       -5.521657267422597E-002
   GDM::trust : predicted energy change was   -3.078016052564821E-002
   GDM::trust : updated trust radius is        0.330000000000000     
   GDM:         diagonal hessian shift is      0.000000000000000E+000
   GDM::PreWSS: input subspace size is                 19
   GDM::PreWSS: working subspace size set to           18
   GDM::PrEWSS: # of linearly dependent vectors =            0
   GDM::PrEWSS: Max dev from orthonormality =   3.676208643055290E-012
   GDM::BFGS:   lowest Hinv e-value    8.464996417457674E-002
   GDM::BFGS:   highest Hinv e-value    6.21682148713280     
   GDM::      : max scaling in EWCs is          2.82842712474619     
   GDM::      : max rotation in step is       -0.295632280092115     
   GDM::        grad.step =  -0.174604711826727     
   ------- Leaving GDM -- hopefully with a step in the right direction! --------
 
   34    -791.7798045067      2.27E-01  Gap = 93.59 eV  Descent step
 
   ------------------- Entering Geometric Direct Minimization ------------------
   GDM::trust : actual energy change is        0.263137734241582     
   GDM::trust : predicted energy change was   -0.541481423519212     
   GDM::trust : updated trust radius is        0.108900000000000     
   GDM::search:  On step            1 .  The current bracket is:
       left   : x =  0.0000E+00, e =      -791.7798045067, g = -0.2652E+00
       current: x =  0.6584E+00, e =      -791.5166667724, g =  0.4972E+00
       right  : x =  0.1000E+04, e =      1000.0000000000, g =  0.1000E+04
       next   : x =  0.1313E+00
   GDM::      : max rotation in step is       -5.896022825269615E-002
   ------- Leaving GDM -- hopefully with a step in the right direction! --------
 
   35    -791.5166667724      5.89E-02  Gap = 93.59 eV  Line search: overstep
 
   ------------------- Entering Geometric Direct Minimization ------------------
   GDM::trust : actual energy change is       -4.070072000502023E-002
   GDM::trust : predicted energy change was   -0.541481423519212     
   GDM::trust : updated trust radius is        0.108900000000000     
   GDM:         diagonal hessian shift is      0.000000000000000E+000
   GDM::PreWSS: input subspace size is                 19
   GDM::PreWSS: working subspace size set to           18
   GDM::PrEWSS: # of linearly dependent vectors =            0
   GDM::PrEWSS: Max dev from orthonormality =   2.664361786752778E-012
   GDM::BFGS:   lowest Hinv e-value    8.006494103588849E-002
   GDM::BFGS:   highest Hinv e-value    5.96469495361416     
   GDM::      : max scaling in EWCs is          2.82842712474619     
   GDM::      : max rotation in step is       -0.139287782024600     
   GDM::        grad.step =  -4.317279485002087E-002
   ------- Leaving GDM -- hopefully with a step in the right direction! --------
 
   36    -791.8205052267      2.32E-01  Gap = 93.59 eV  Descent step
 
   ------------------- Entering Geometric Direct Minimization ------------------
   GDM::trust : actual energy change is       -6.639501063364150E-002
   GDM::trust : predicted energy change was   -2.605752023828115E-002
   GDM::trust : updated trust radius is        0.330000000000000     
   GDM:         diagonal hessian shift is      0.000000000000000E+000
   GDM::PreWSS: input subspace size is                 19
   GDM::PreWSS: working subspace size set to           18
   GDM::PrEWSS: # of linearly dependent vectors =            0
   GDM::PrEWSS: Max dev from orthonormality =   6.277166286761116E-013
   GDM::BFGS:   lowest Hinv e-value    7.709692155059809E-002
   GDM::BFGS:   highest Hinv e-value    6.02861246175592     
   GDM::      : max scaling in EWCs is          2.82842712474619     
   GDM::      : max rotation in step is       -0.531059113000640     
   GDM::        grad.step =  -0.171714067793901     
   ------- Leaving GDM -- hopefully with a step in the right direction! --------
 
   37    -791.8869002373      3.79E-01  Gap = 93.59 eV  Descent step
 
   ------------------- Entering Geometric Direct Minimization ------------------
   GDM::trust : actual energy change is        2.546176636985820E-002
   GDM::trust : predicted energy change was   -0.456639997707452     
   GDM::trust : updated trust radius is        0.108900000000000     
   GDM::search:  On step            1 .  The current bracket is:
       left   : x =  0.0000E+00, e =      -791.8869002373, g = -0.2400E+00
       current: x =  0.7153E+00, e =      -791.8614384709, g =  0.1801E+00
       right  : x =  0.1000E+04, e =      1000.0000000000, g =  0.1000E+04
       next   : x =  0.3115E+00
   GDM::      : max rotation in step is       -0.231241117652950     
   ------- Leaving GDM -- hopefully with a step in the right direction! --------
 
   38    -791.8614384709      6.48E-02  Gap = 93.59 eV  Line search: overstep
 
   ------------------- Entering Geometric Direct Minimization ------------------
   GDM::trust : actual energy change is       -6.994833865337569E-002
   GDM::trust : predicted energy change was   -0.456639997707452     
   GDM::trust : updated trust radius is        0.108900000000000     
   GDM:         diagonal hessian shift is      0.000000000000000E+000
   GDM::PreWSS: input subspace size is                 19
   GDM::PreWSS: working subspace size set to           18
   GDM::PrEWSS: # of linearly dependent vectors =            0
   GDM::PrEWSS: Max dev from orthonormality =   2.234032403514163E-012
   GDM::BFGS:   lowest Hinv e-value    0.109557292005225     
   GDM::BFGS:   highest Hinv e-value    6.95209019833773     
   GDM::      : max scaling in EWCs is          2.82842712474619     
   GDM::      : max rotation in step is        0.136383871522957     
   GDM::        grad.step =  -6.365432708577576E-002
   ------- Leaving GDM -- hopefully with a step in the right direction! --------
 
   39    -791.9568485760      2.59E-01  Gap = 93.59 eV  Descent step
 
   ------------------- Entering Geometric Direct Minimization ------------------
   GDM::trust : actual energy change is       -7.729400784558038E-002
   GDM::trust : predicted energy change was   -3.761950512446414E-002
   GDM::trust : updated trust radius is        0.330000000000000     
   GDM:         diagonal hessian shift is      0.000000000000000E+000
   GDM::PreWSS: input subspace size is                 19
   GDM::PreWSS: working subspace size set to           18
   GDM::PrEWSS: # of linearly dependent vectors =            0
   GDM::PrEWSS: Max dev from orthonormality =   1.206302419065608E-012
   GDM::BFGS:   lowest Hinv e-value    0.130400689669591     
   GDM::BFGS:   highest Hinv e-value    6.22541518364423     
   GDM::      : max scaling in EWCs is          2.82842712474619     
   GDM::      : max rotation in step is       -0.566140965351362     
   GDM::        grad.step =  -0.147757585186179     
   ------- Leaving GDM -- hopefully with a step in the right direction! --------
 
   40    -792.0341425838      2.72E-01  Gap = 93.59 eV  Descent step
 
   ------------------- Entering Geometric Direct Minimization ------------------
   GDM::trust : actual energy change is       -8.669320823184989E-002
   GDM::trust : predicted energy change was   -0.224234387257627     
   GDM::trust : updated trust radius is        0.330000000000000     
   GDM:         diagonal hessian shift is      0.000000000000000E+000
   GDM::PreWSS: input subspace size is                 19
   GDM::PreWSS: working subspace size set to           18
   GDM::PrEWSS: # of linearly dependent vectors =            0
   GDM::PrEWSS: Max dev from orthonormality =   6.064211632850203E-013
   GDM::BFGS:   lowest Hinv e-value    0.168617332168171     
   GDM::BFGS:   highest Hinv e-value    6.72862617453843     
   GDM::      : max scaling in EWCs is          2.82842712474619     
   GDM::      : max rotation in step is        0.358421942460300     
   GDM::        grad.step =  -0.227476140179830     
   ------- Leaving GDM -- hopefully with a step in the right direction! --------
 
   41    -792.1208357920      3.62E-01  Gap = 0.00 eV  Descent step
 
   ------------------- Entering Geometric Direct Minimization ------------------
   GDM::trust : actual energy change is        0.220136243046340     
   GDM::trust : predicted energy change was   -0.378064075595480     
   GDM::trust : updated trust radius is        0.108900000000000     
   GDM::search:  On step            1 .  The current bracket is:
       left   : x =  0.0000E+00, e =      -792.1208357920, g = -0.3695E+00
       current: x =  0.6156E+00, e =      -791.9006995490, g =  0.7705E+00
       right  : x =  0.1000E+04, e =      1000.0000000000, g =  0.1000E+04
       next   : x =  0.1564E+00
   GDM::      : max rotation in step is        9.107482621345316E-002
   ------- Leaving GDM -- hopefully with a step in the right direction! --------
 
   42    -791.9006995490      1.94E-01  Gap = 0.00 eV  Line search: overstep
 
   ------------------- Entering Geometric Direct Minimization ------------------
   GDM::trust : actual energy change is       -7.953561380099927E-002
   GDM::trust : predicted energy change was   -0.378064075595480     
   GDM::trust : updated trust radius is        0.108900000000000     
   GDM:         diagonal hessian shift is      0.000000000000000E+000
   GDM::PreWSS: input subspace size is                 19
   GDM::PreWSS: working subspace size set to           18
   GDM::PrEWSS: # of linearly dependent vectors =            0
   GDM::PrEWSS: Max dev from orthonormality =   9.923936672429079E-013
   GDM::BFGS:   lowest Hinv e-value    0.152553579373261     
   GDM::BFGS:   highest Hinv e-value    6.78665317988056     
   GDM::      : max scaling in EWCs is          2.82842712474619     
   GDM::      : max rotation in step is        0.231429281981963     
   GDM::        grad.step =  -3.340553692589769E-002
   ------- Leaving GDM -- hopefully with a step in the right direction! --------
 
   43    -792.2003714058      2.30E-01  Gap = 0.00 eV  Descent step
 
   ------------------- Entering Geometric Direct Minimization ------------------
   GDM::trust : actual energy change is        1.167510928883075E-002
   GDM::trust : predicted energy change was   -4.076800630249360E-002
   GDM::trust : updated trust radius is        0.108900000000000     
   GDM::search:  On step            1 .  The current bracket is:
       left   : x =  0.0000E+00, e =      -792.2003714058, g = -0.1242E+00
       current: x =  0.2690E+00, e =      -792.1886962965, g =  0.1752E+00
       right  : x =  0.1000E+04, e =      1000.0000000000, g =  0.1000E+04
       next   : x =  0.9966E-01
   GDM::      : max rotation in step is        8.574654618034977E-002
   ------- Leaving GDM -- hopefully with a step in the right direction! --------
 
   44    -792.1886962965      7.41E-03  Gap = 0.00 eV  Line search: overstep
 
   ------------------- Entering Geometric Direct Minimization ------------------
   GDM::trust : actual energy change is       -1.464703889030261E-002
   GDM::trust : predicted energy change was   -4.076800630249360E-002
   GDM::trust : updated trust radius is        0.108900000000000     
   GDM:         diagonal hessian shift is      0.000000000000000E+000
   GDM::PreWSS: input subspace size is                 19
   GDM::PreWSS: working subspace size set to           18
   GDM::PrEWSS: # of linearly dependent vectors =            0
   GDM::PrEWSS: Max dev from orthonormality =   1.134412008774177E-012
   GDM::BFGS:   lowest Hinv e-value    0.127984527551675     
   GDM::BFGS:   highest Hinv e-value    4.54144100621023     
   GDM::      : max scaling in EWCs is          2.82842712474619     
   GDM::      : max rotation in step is        8.529433640698185E-002
   GDM::        grad.step =  -1.357091603364216E-002
   ------- Leaving GDM -- hopefully with a step in the right direction! --------
 
   45    -792.2150184447      4.98E-02  Gap = 0.00 eV  Descent step
 
   ------------------- Entering Geometric Direct Minimization ------------------
   GDM::trust : actual energy change is       -8.004495522413890E-003
   GDM::trust : predicted energy change was   -1.775028092864630E-002
   GDM::trust : updated trust radius is        0.330000000000000     
   GDM:         diagonal hessian shift is      0.000000000000000E+000
   GDM::PreWSS: input subspace size is                 19
   GDM::PreWSS: working subspace size set to           18
   GDM::PrEWSS: # of linearly dependent vectors =            0
   GDM::PrEWSS: Max dev from orthonormality =   2.303846349804850E-012
   GDM::BFGS:   lowest Hinv e-value    0.131840199626891     
   GDM::BFGS:   highest Hinv e-value    4.57037425662594     
   GDM::      : max scaling in EWCs is          2.82842712474619     
   GDM::      : max rotation in step is        0.167147473055610     
   GDM::        grad.step =  -1.780633122444049E-002
   ------- Leaving GDM -- hopefully with a step in the right direction! --------
 
   46    -792.2230229402      1.02E-01  Gap = 0.00 eV  Normal BFGS step
 
   ------------------- Entering Geometric Direct Minimization ------------------
   GDM::trust : actual energy change is        4.025011065277795E-002
   GDM::trust : predicted energy change was   -2.670949683666074E-002
   GDM::trust : updated trust radius is        0.108900000000000     
   GDM::search:  On step            1 .  The current bracket is:
       left   : x =  0.0000E+00, e =      -792.2230229402, g = -0.5139E-01
       current: x =  0.3465E+00, e =      -792.1827728296, g =  0.1778E+00
       right  : x =  0.1000E+04, e =      1000.0000000000, g =  0.1000E+04
       next   : x =  0.5314E-01
   GDM::      : max rotation in step is        2.563267031461278E-002
   ------- Leaving GDM -- hopefully with a step in the right direction! --------
 
   47    -792.1827728296      1.96E-02  Gap = 0.00 eV  Line search: overstep
 
   ------------------- Entering Geometric Direct Minimization ------------------
   GDM::trust : actual energy change is       -3.872568344377214E-003
   GDM::trust : predicted energy change was   -2.670949683666074E-002
   GDM::trust : updated trust radius is        0.108900000000000     
   GDM:         diagonal hessian shift is      0.000000000000000E+000
   GDM::PreWSS: input subspace size is                 19
   GDM::PreWSS: working subspace size set to           18
   GDM::PrEWSS: # of linearly dependent vectors =            0
   GDM::PrEWSS: Max dev from orthonormality =   3.319500924137131E-012
   GDM::BFGS:   lowest Hinv e-value    0.114774967953476     
   GDM::BFGS:   highest Hinv e-value    4.33614809954431     
   GDM::      : max scaling in EWCs is          2.82842712474619     
   GDM::      : max rotation in step is        0.115054362046424     
   GDM::        grad.step =  -1.252443358681409E-002
   ------- Leaving GDM -- hopefully with a step in the right direction! --------
 
   48    -792.2268955086      4.30E-02  Gap = 0.00 eV  Descent step
 
   ------------------- Entering Geometric Direct Minimization ------------------
   GDM::trust : actual energy change is        3.627712231900659E-002
   GDM::trust : predicted energy change was   -3.519468422140132E-002
   GDM::trust : updated trust radius is        0.108900000000000     
   GDM::search:  On step            1 .  The current bracket is:
       left   : x =  0.0000E+00, e =      -792.2268955086, g = -0.7245E-01
       current: x =  0.1729E+00, e =      -792.1906183863, g =  0.2936E+00
       right  : x =  0.1000E+04, e =      1000.0000000000, g =  0.1000E+04
       next   : x =  0.2218E-01
   GDM::      : max rotation in step is        1.476377842444803E-002
   ------- Leaving GDM -- hopefully with a step in the right direction! --------
 
   49    -792.1906183863      4.47E-02  Gap = 0.00 eV  Line search: overstep
 
   ------------------- Entering Geometric Direct Minimization ------------------
   GDM::trust : actual energy change is       -2.268544701337305E-003
   GDM::trust : predicted energy change was   -3.519468422140132E-002
   GDM::trust : updated trust radius is        0.108900000000000     
   GDM:         diagonal hessian shift is      0.000000000000000E+000
   GDM::PreWSS: input subspace size is                 19
   GDM::PreWSS: working subspace size set to           18
   GDM::PrEWSS: # of linearly dependent vectors =            0
   GDM::PrEWSS: Max dev from orthonormality =   8.057145228779206E-012
   GDM::BFGS:   lowest Hinv e-value    0.125467801949889     
   GDM::BFGS:   highest Hinv e-value    5.75771637496593     
   GDM::      : max scaling in EWCs is          2.82842712474619     
   GDM::      : max rotation in step is        2.500530283651704E-002
   GDM::        grad.step =  -1.653028770991302E-003
   ------- Leaving GDM -- hopefully with a step in the right direction! --------
 
   50    -792.2291640533      1.64E-02  Gap = 0.00 eV  Normal BFGS step
 
   ------------------- Entering Geometric Direct Minimization ------------------
   GDM::trust : actual energy change is        2.989414538205892E-004
   GDM::trust : predicted energy change was   -2.479543156486952E-003
   GDM::trust : updated trust radius is        0.108900000000000     
   GDM::search:  On step            1 .  The current bracket is:
       left   : x =  0.0000E+00, e =      -792.2291640533, g = -0.2607E-01
       current: x =  0.6341E-01, e =      -792.2288651118, g =  0.3007E-01
       right  : x =  0.1000E+04, e =      1000.0000000000, g =  0.1000E+04
       next   : x =  0.2685E-01
   GDM::      : max rotation in step is        1.058788819898532E-002
   ------- Leaving GDM -- hopefully with a step in the right direction! --------
 
   51    -792.2288651118      7.71E-03  Gap = 0.00 eV  Line search: overstep
 
   ------------------- Entering Geometric Direct Minimization ------------------
   GDM::trust : actual energy change is       -7.441975471920159E-004
   GDM::trust : predicted energy change was   -2.479543156486952E-003
   GDM::trust : updated trust radius is        0.108900000000000     
   GDM:         diagonal hessian shift is      0.000000000000000E+000
   GDM::PreWSS: input subspace size is                 19
   GDM::PreWSS: working subspace size set to           18
   GDM::PrEWSS: # of linearly dependent vectors =            0
   GDM::PrEWSS: Max dev from orthonormality =   3.657726899142233E-012
   GDM::BFGS:   lowest Hinv e-value    0.123188746829620     
   GDM::BFGS:   highest Hinv e-value    4.16044775178398     
   GDM::      : max scaling in EWCs is          2.82842712474619     
   GDM::      : max rotation in step is       -1.366606526503919E-002
   GDM::        grad.step =  -8.476736793027311E-004
   ------- Leaving GDM -- hopefully with a step in the right direction! --------
 
   52    -792.2299082508      1.06E-02  Gap = 0.00 eV  Normal BFGS step
 
   ------------------- Entering Geometric Direct Minimization ------------------
   GDM::trust : actual energy change is        9.002050891240287E-004
   GDM::trust : predicted energy change was   -1.271510518954096E-003
   GDM::trust : updated trust radius is        0.108900000000000     
   GDM::search:  On step            1 .  The current bracket is:
       left   : x =  0.0000E+00, e =      -792.2299082508, g = -0.1959E-01
       current: x =  0.4326E-01, e =      -792.2290080457, g =  0.4027E-01
       right  : x =  0.1000E+04, e =      1000.0000000000, g =  0.1000E+04
       next   : x =  0.1049E-01
   GDM::      : max rotation in step is       -3.313835042242071E-003
   ------- Leaving GDM -- hopefully with a step in the right direction! --------
 
   53    -792.2290080457      1.32E-02  Gap = 171.15 eV  Line search: overstep
 
   ------------------- Entering Geometric Direct Minimization ------------------
   GDM::trust : actual energy change is       -2.579818205958873E-004
   GDM::trust : predicted energy change was   -1.271510518954096E-003
   GDM::trust : updated trust radius is        0.108900000000000     
   GDM:         diagonal hessian shift is      0.000000000000000E+000
   GDM::PreWSS: input subspace size is                 19
   GDM::PreWSS: working subspace size set to           18
   GDM::PrEWSS: # of linearly dependent vectors =            0
   GDM::PrEWSS: Max dev from orthonormality =   1.074267758083280E-011
   GDM::BFGS:   lowest Hinv e-value    0.113456402932469     
   GDM::BFGS:   highest Hinv e-value    3.17330786336423     
   GDM::      : max scaling in EWCs is          2.82842712474619     
   GDM::      : max rotation in step is       -1.157349400597090E-002
   GDM::        grad.step =  -3.276471732079202E-004
   ------- Leaving GDM -- hopefully with a step in the right direction! --------
 
   54    -792.2301662327      7.16E-03  Gap = 56.70 eV  Normal BFGS step
 
   ------------------- Entering Geometric Direct Minimization ------------------
   GDM::trust : actual energy change is        2.863748080699224E-004
   GDM::trust : predicted energy change was   -4.914707598118803E-004
   GDM::trust : updated trust radius is        0.108900000000000     
   GDM::search:  On step            1 .  The current bracket is:
       left   : x =  0.0000E+00, e =      -792.2301662327, g = -0.1120E-01
       current: x =  0.2926E-01, e =      -792.2298798579, g =  0.2108E-01
       right  : x =  0.1000E+04, e =      1000.0000000000, g =  0.1000E+04
       next   : x =  0.7808E-02
   GDM::      : max rotation in step is       -3.087855737105361E-003
   ------- Leaving GDM -- hopefully with a step in the right direction! --------
 
   55    -792.2298798579      4.18E-03  Gap = 56.70 eV  Line search: overstep
 
   ------------------- Entering Geometric Direct Minimization ------------------
   GDM::trust : actual energy change is       -1.080994636595278E-004
   GDM::trust : predicted energy change was   -4.914707598118803E-004
   GDM::trust : updated trust radius is        0.108900000000000     
   GDM:         diagonal hessian shift is      0.000000000000000E+000
   GDM::PreWSS: input subspace size is                 19
   GDM::PreWSS: working subspace size set to           18
   GDM::PrEWSS: # of linearly dependent vectors =            0
   GDM::PrEWSS: Max dev from orthonormality =   8.033690032660523E-012
   GDM::BFGS:   lowest Hinv e-value    0.112496257574680     
   GDM::BFGS:   highest Hinv e-value    2.84159801398053     
   GDM::      : max scaling in EWCs is          2.82842712474619     
   GDM::      : max rotation in step is        3.047222818415152E-003
   GDM::        grad.step =  -3.203931499471165E-005
   ------- Leaving GDM -- hopefully with a step in the right direction! --------
 
   56    -792.2302743321      2.13E-03  Gap = 56.70 eV  Normal BFGS step
 
   ------------------- Entering Geometric Direct Minimization ------------------
   GDM::trust : actual energy change is       -2.731454173954262E-005
   GDM::trust : predicted energy change was   -4.805897249206748E-005
   GDM::trust : updated trust radius is        0.330000000000000     
   GDM:         diagonal hessian shift is      0.000000000000000E+000
   GDM::PreWSS: input subspace size is                 19
   GDM::PreWSS: working subspace size set to           18
   GDM::PrEWSS: # of linearly dependent vectors =            0
   GDM::PrEWSS: Max dev from orthonormality =   1.975980143398282E-012
   GDM::BFGS:   lowest Hinv e-value    0.109182364368042     
   GDM::BFGS:   highest Hinv e-value    2.92536393881655     
   GDM::      : max scaling in EWCs is          2.82842712474619     
   GDM::      : max rotation in step is        9.560772046216750E-004
   GDM::        grad.step =  -2.798665956094725E-006
   ------- Leaving GDM -- hopefully with a step in the right direction! --------
 
   57    -792.2303016467      1.55E-03  Gap = 56.70 eV  Normal BFGS step
 
   ------------------- Entering Geometric Direct Minimization ------------------
   GDM::trust : actual energy change is       -2.185370249208063E-006
   GDM::trust : predicted energy change was   -4.197998934142090E-006
   GDM::trust : updated trust radius is        0.330000000000000     
   GDM:         diagonal hessian shift is      0.000000000000000E+000
   GDM::PreWSS: input subspace size is                 19
   GDM::PreWSS: working subspace size set to           18
   GDM::PrEWSS: # of linearly dependent vectors =            0
   GDM::PrEWSS: Max dev from orthonormality =   8.867018230773738E-012
   GDM::BFGS:   lowest Hinv e-value    0.114079956274270     
   GDM::BFGS:   highest Hinv e-value    2.56489244262657     
   GDM::      : max scaling in EWCs is          2.82842712474619     
   GDM::      : max rotation in step is        7.107754674015698E-004
   GDM::        grad.step =  -6.587577334229621E-007
   ------- Leaving GDM -- hopefully with a step in the right direction! --------
 
   58    -792.2303038320      3.84E-04  Gap = 56.70 eV  Normal BFGS step
 
   ------------------- Entering Geometric Direct Minimization ------------------
   GDM::trust : actual energy change is       -3.131583525828319E-007
   GDM::trust : predicted energy change was   -9.881366001344431E-007
   GDM::trust : updated trust radius is        0.330000000000000     
   GDM:         diagonal hessian shift is      0.000000000000000E+000
   GDM::PreWSS: input subspace size is                 19
   GDM::PreWSS: working subspace size set to           18
   GDM::PrEWSS: # of linearly dependent vectors =            0
   GDM::PrEWSS: Max dev from orthonormality =   7.534556312194240E-012
   GDM::BFGS:   lowest Hinv e-value    0.114445620816110     
   GDM::BFGS:   highest Hinv e-value    2.26205955679180     
   GDM::      : max scaling in EWCs is          2.82842712474619     
   GDM::      : max rotation in step is        4.505655812078419E-004
   GDM::        grad.step =  -3.115694721635776E-007
   ------- Leaving GDM -- hopefully with a step in the right direction! --------
 
   59    -792.2303041452      1.66E-04  Gap = 56.70 eV  Normal BFGS step
 
   ------------------- Entering Geometric Direct Minimization ------------------
   GDM::trust : actual energy change is       -1.774334350557183E-007
   GDM::trust : predicted energy change was   -4.673542082453664E-007
   GDM::trust : updated trust radius is        0.330000000000000     
   GDM:         diagonal hessian shift is      0.000000000000000E+000
   GDM::PreWSS: input subspace size is                 19
   GDM::PreWSS: working subspace size set to           18
   GDM::PrEWSS: # of linearly dependent vectors =            0
   GDM::PrEWSS: Max dev from orthonormality =   7.845422228536236E-012
   GDM::BFGS:   lowest Hinv e-value    0.114399979528120     
   GDM::BFGS:   highest Hinv e-value    1.72735954393272     
   GDM::      : max scaling in EWCs is          2.82842712474619     
   GDM::      : max rotation in step is        1.429699319738132E-004
   GDM::        grad.step =  -8.391109600551706E-008
   ------- Leaving GDM -- hopefully with a step in the right direction! --------
 
   60    -792.2303043226      8.05E-05  Gap = 56.70 eV  Normal BFGS step
 
   ------------------- Entering Geometric Direct Minimization ------------------
   GDM::trust : actual energy change is       -5.785989287687698E-008
   GDM::trust : predicted energy change was   -1.258666440082756E-007
   GDM::trust : updated trust radius is        0.330000000000000     
   GDM:         diagonal hessian shift is      0.000000000000000E+000
   GDM::PreWSS: input subspace size is                 19
   GDM::PreWSS: working subspace size set to           18
   GDM::PrEWSS: # of linearly dependent vectors =            0
   GDM::PrEWSS: Max dev from orthonormality =   1.076032665747739E-011
   GDM::BFGS:   lowest Hinv e-value    0.114450205419644     
   GDM::BFGS:   highest Hinv e-value    2.18994595712870     
   GDM::      : max scaling in EWCs is          2.82842712474619     
   GDM::      : max rotation in step is        1.421163811746908E-004
   GDM::        grad.step =  -2.004892690360791E-008
   ------- Leaving GDM -- hopefully with a step in the right direction! --------
 
   61    -792.2303043805      7.32E-05  Gap = 56.70 eV  Normal BFGS step
 
   ------------------- Entering Geometric Direct Minimization ------------------
   GDM::trust : actual energy change is       -4.412981979839969E-009
   GDM::trust : predicted energy change was   -3.007339035541188E-008
   GDM::trust : updated trust radius is        0.330000000000000     
   GDM:         diagonal hessian shift is      0.000000000000000E+000
   GDM::PreWSS: input subspace size is                 19
   GDM::PreWSS: working subspace size set to           18
   GDM::PrEWSS: # of linearly dependent vectors =            0
   GDM::PrEWSS: Max dev from orthonormality =   6.265488128320840E-012
   GDM::BFGS:   lowest Hinv e-value    0.112942972592360     
   GDM::BFGS:   highest Hinv e-value    1.86330501394324     
   GDM::      : max scaling in EWCs is          2.82842712474619     
   GDM::      : max rotation in step is        3.594338263588678E-005
   GDM::        grad.step =  -9.732968460041959E-009
   ------- Leaving GDM -- hopefully with a step in the right direction! --------
 
   62    -792.2303043849      4.19E-05  Gap = 56.70 eV  Normal BFGS step
 
   ------------------- Entering Geometric Direct Minimization ------------------
   GDM::trust : actual energy change is       -8.857909961079713E-009
   GDM::trust : predicted energy change was   -1.459945269006294E-008
   GDM::trust : updated trust radius is        0.330000000000000     
   GDM:         diagonal hessian shift is      0.000000000000000E+000
   GDM::PreWSS: input subspace size is                 19
   GDM::PreWSS: working subspace size set to           18
   GDM::PrEWSS: # of linearly dependent vectors =            0
   GDM::PrEWSS: Max dev from orthonormality =   6.817608977360834E-012
   GDM::BFGS:   lowest Hinv e-value    0.112688326099056     
   GDM::BFGS:   highest Hinv e-value    1.67814955688806     
   GDM::      : max scaling in EWCs is          2.82842712474619     
   GDM::      : max rotation in step is       -1.419795256392613E-005
   GDM::        grad.step =  -4.219539213536789E-010
   ------- Leaving GDM -- hopefully with a step in the right direction! --------
 
   63    -792.2303043938      5.21E-06  Gap = 56.70 eV  Normal BFGS step
 
   ------------------- Entering Geometric Direct Minimization ------------------
   GDM::trust : actual energy change is       -2.768274498521350E-010
   GDM::trust : predicted energy change was   -6.329308820305184E-010
   GDM::trust : updated trust radius is        0.330000000000000     
   GDM:         diagonal hessian shift is      0.000000000000000E+000
   GDM::PreWSS: input subspace size is                 19
   GDM::PreWSS: working subspace size set to           18
   GDM::PrEWSS: # of linearly dependent vectors =            0
   GDM::PrEWSS: Max dev from orthonormality =   6.759051651705761E-012
   GDM::BFGS:   lowest Hinv e-value    0.113022919878997     
   GDM::BFGS:   highest Hinv e-value    1.62941940404864     
   GDM::      : max scaling in EWCs is          2.82842712474619     
   GDM::      : max rotation in step is        7.340366240373923E-006
   GDM::        grad.step =  -6.397639508568161E-011
   ------- Leaving GDM -- hopefully with a step in the right direction! --------
 
   64    -792.2303043940      4.10E-06  Gap = 56.70 eV  Normal BFGS step
 
   ------------------- Entering Geometric Direct Minimization ------------------
   GDM::trust : actual energy change is       -5.081801646156237E-011
   GDM::trust : predicted energy change was   -9.596459262852239E-011
   GDM::trust : updated trust radius is        0.330000000000000     
   GDM:         diagonal hessian shift is      0.000000000000000E+000
   GDM::PreWSS: input subspace size is                 19
   GDM::PreWSS: working subspace size set to           17
   GDM::PrEWSS: # of linearly dependent vectors =            0
   GDM::PrEWSS: Max dev from orthonormality =   8.344906363144666E-012
   GDM::BFGS:   lowest Hinv e-value    0.110798380199617     
   GDM::BFGS:   highest Hinv e-value    1.84165681292089     
   GDM::      : max scaling in EWCs is          2.82842712474619     
   GDM::      : max rotation in step is        6.184576072141926E-006
   GDM::        grad.step =  -2.487569998931909E-011
   ------- Leaving GDM -- hopefully with a step in the right direction! --------
 
   65    -792.2303043941      3.74E-06  Gap = 56.70 eV  Normal BFGS step
 
   ------------------- Entering Geometric Direct Minimization ------------------
   GDM::trust : actual energy change is        7.105427357601002E-011
   GDM::trust : predicted energy change was   -3.731354998397863E-011
   GDM::trust : updated trust radius is        0.108900000000000     
   GDM::WARNING energy changes are now smaller than effective accuracy.
   GDM::        calculation will continue, but THRESH should be increased
   GDM::        or SCF_CONVERGENCE decreased.
   GDM::        effective_thresh =   3.600000000000000E-010
   GDM:         diagonal hessian shift is      0.000000000000000E+000
   GDM::PreWSS: input subspace size is                 18
   GDM::PreWSS: working subspace size set to           18
   GDM::PrEWSS: # of linearly dependent vectors =            1
   GDM::PrEWSS: Max dev from orthonormality =   7.264688850483481E-012
   GDM::BFGS:   lowest Hinv e-value    0.113153284006615     
   GDM::BFGS:   highest Hinv e-value    1.59108328824435     
   GDM::      : max scaling in EWCs is          2.82842712474619     
   GDM::      : max rotation in step is       -4.953917862468609E-006
   GDM::        grad.step =  -8.168282857932460E-011
   ------- Leaving GDM -- hopefully with a step in the right direction! --------
 
   66    -792.2303043940      1.47E-05  Gap = 56.70 eV  Normal BFGS step
 
   ------------------- Entering Geometric Direct Minimization ------------------
   GDM::trust : actual energy change is       -8.060396794462577E-011
   GDM::trust : predicted energy change was   -1.225242428689869E-010
   GDM::trust : updated trust radius is        0.330000000000000     
   GDM:         diagonal hessian shift is      0.000000000000000E+000
   GDM::PreWSS: input subspace size is                 19
   GDM::PreWSS: working subspace size set to           15
   GDM::PrEWSS: # of linearly dependent vectors =            0
   GDM::PrEWSS: Max dev from orthonormality =   4.402393033453578E-011
   GDM::BFGS:   lowest Hinv e-value    0.159512541505854     
   GDM::BFGS:   highest Hinv e-value    2.56820978384408     
   GDM::      : max scaling in EWCs is          2.82842712474619     
   GDM::      : max rotation in step is        1.429427801395368E-006
   GDM::        grad.step =  -8.522588035425027E-013
   ------- Leaving GDM -- hopefully with a step in the right direction! --------
 
   67    -792.2303043941      7.26E-07  Gap = 56.70 eV  Normal BFGS step
 
   ------------------- Entering Geometric Direct Minimization ------------------
   GDM::trust : actual energy change is        2.273736754432321E-013
   GDM::trust : predicted energy change was   -1.278388205313754E-012
   GDM::trust : updated trust radius is        0.108900000000000     
   GDM::WARNING energy changes are now smaller than effective accuracy.
   GDM::        calculation will continue, but THRESH should be increased
   GDM::        or SCF_CONVERGENCE decreased.
   GDM::        effective_thresh =   3.600000000000000E-010
   GDM:         diagonal hessian shift is      0.000000000000000E+000
   GDM::PreWSS: input subspace size is                 16
   GDM::PreWSS: working subspace size set to           16
   GDM::PrEWSS: # of linearly dependent vectors =            1
   GDM::PrEWSS: Max dev from orthonormality =   4.684850250791239E-011
   GDM::BFGS:   lowest Hinv e-value    0.109614484570425     
   GDM::BFGS:   highest Hinv e-value    3.04586770558411     
[...]
   GDM::        or SCF_CONVERGENCE decreased.
   GDM::        effective_thresh =   3.600000000000000E-010
   GDM:         diagonal hessian shift is      0.000000000000000E+000
   GDM::PreWSS: input subspace size is                 10
   GDM::PreWSS: working subspace size set to           10
   GDM::PrEWSS: # of linearly dependent vectors =            9
   GDM::PrEWSS: Max dev from orthonormality =   9.048317650695026E-015
   GDM::BFGS:   lowest Hinv e-value    0.218339464276623     
   GDM::BFGS:   highest Hinv e-value    1.44206295755235     
   GDM::      : max scaling in EWCs is          2.20750725779427     
   GDM::      : max rotation in step is        7.371026726598466E-007
   GDM::        grad.step =  -1.160825915494306E-011
   ------- Leaving GDM -- hopefully with a step in the right direction! --------
 
   12    -792.5080664534      1.23E-06  Gap = 65.56 eV  Normal BFGS step
 
   ------------------- Entering Geometric Direct Minimization ------------------
   GDM::trust : actual energy change is       -1.250555214937776E-011
   GDM::trust : predicted energy change was   -1.741238873241459E-011
   GDM::trust : updated trust radius is        0.330000000000000     
   GDM:         diagonal hessian shift is      0.000000000000000E+000
   GDM::PreWSS: input subspace size is                 11
   GDM::PreWSS: working subspace size set to           11
   GDM::PrEWSS: # of linearly dependent vectors =           10
   GDM::PrEWSS: Max dev from orthonormality =   7.274736368856338E-014
   GDM::BFGS:   lowest Hinv e-value    0.218484704229593     
   GDM::BFGS:   highest Hinv e-value    1.46138456843233     
   GDM::      : max scaling in EWCs is          2.20750965852047     
   GDM::      : max rotation in step is        2.906193268127505E-007
   GDM::        grad.step =  -8.627349200134637E-013
   ------- Leaving GDM -- hopefully with a step in the right direction! --------
 
   13    -792.5080664534      2.23E-07  Gap = 65.56 eV  Normal BFGS step
 
   ------------------- Entering Geometric Direct Minimization ------------------
   GDM::trust : actual energy change is        2.614797267597169E-012
   GDM::trust : predicted energy change was   -1.294102380020196E-012
   GDM::trust : updated trust radius is        0.108900000000000     
   GDM::WARNING energy changes are now smaller than effective accuracy.
   GDM::        calculation will continue, but THRESH should be increased
   GDM::        or SCF_CONVERGENCE decreased.
   GDM::        effective_thresh =   3.600000000000000E-010
   GDM:         diagonal hessian shift is      0.000000000000000E+000
   GDM::PreWSS: input subspace size is                 12
   GDM::PreWSS: working subspace size set to           12
   GDM::PrEWSS: # of linearly dependent vectors =           11
   GDM::PrEWSS: Max dev from orthonormality =   9.919842725025774E-014
   GDM::BFGS:   lowest Hinv e-value    0.218339116445582     
   GDM::BFGS:   highest Hinv e-value    1.43546403116551     
   GDM::      : max scaling in EWCs is          2.20751517248502     
   GDM::      : max rotation in step is       -1.798650416228154E-007
   GDM::        grad.step =  -6.417586317566596E-013
   ------- Leaving GDM -- hopefully with a step in the right direction! --------
 
   14    -792.5080664534      2.32E-07  Gap = 65.56 eV  Normal BFGS step
 
   ------------------- Entering Geometric Direct Minimization ------------------
   GDM::trust : actual energy change is       -2.273736754432321E-013
   GDM::trust : predicted energy change was   -9.626379476349895E-013
   GDM::trust : updated trust radius is        0.330000000000000     
   GDM:         diagonal hessian shift is      0.000000000000000E+000
   GDM::PreWSS: input subspace size is                 13
   GDM::PreWSS: working subspace size set to           13
   GDM::PrEWSS: # of linearly dependent vectors =           12
   GDM::PrEWSS: Max dev from orthonormality =   1.964609031013254E-013
   GDM::BFGS:   lowest Hinv e-value    0.218407899532830     
   GDM::BFGS:   highest Hinv e-value    1.47198980424574     
   GDM::      : max scaling in EWCs is          2.20751125682569     
   GDM::      : max rotation in step is        8.366238901076108E-008
   GDM::        grad.step =  -7.166331583598970E-014
   ------- Leaving GDM -- hopefully with a step in the right direction! --------
 
   15    -792.5080664534      6.98E-08  Gap = 65.56 eV  Normal BFGS step
 
   ------------------- Entering Geometric Direct Minimization ------------------
   GDM::trust : actual energy change is       -4.547473508864641E-013
   GDM::trust : predicted energy change was   -1.074949737539846E-013
   GDM::trust : updated trust radius is        0.330000000000000     
   GDM:         diagonal hessian shift is      0.000000000000000E+000
   GDM::PreWSS: input subspace size is                 14
   GDM::PreWSS: working subspace size set to           14
   GDM::PrEWSS: # of linearly dependent vectors =           13
   GDM::PrEWSS: Max dev from orthonormality =   2.539080057317733E-013
   GDM::BFGS:   lowest Hinv e-value    0.218282786846370     
   GDM::BFGS:   highest Hinv e-value    1.46897668206357     
   GDM::      : max scaling in EWCs is          2.20751119628532     
   GDM::      : max rotation in step is       -6.415658072000929E-008
   GDM::        grad.step =  -1.110463614362028E-013
   ------- Leaving GDM -- hopefully with a step in the right direction! --------
 
   16    -792.5080664534      1.68E-07  Gap = 65.56 eV  Normal BFGS step
 
   ------------------- Entering Geometric Direct Minimization ------------------
   GDM::trust : actual energy change is       -2.273736754432321E-012
   GDM::trust : predicted energy change was   -1.665695421543042E-013
   GDM::trust : updated trust radius is        0.330000000000000     
   GDM:         diagonal hessian shift is      0.000000000000000E+000
   GDM::PreWSS: input subspace size is                 15
   GDM::PreWSS: working subspace size set to           15
   GDM::PrEWSS: # of linearly dependent vectors =           14
   GDM::PrEWSS: Max dev from orthonormality =   1.470636112888002E-012
   GDM::BFGS:   lowest Hinv e-value    0.218397053509380     
   GDM::BFGS:   highest Hinv e-value    1.49395447809751     
   GDM::      : max scaling in EWCs is          2.20751179613530     
   GDM::      : max rotation in step is       -1.691471395276122E-008
   GDM::        grad.step =  -8.032011985486179E-015
   ------- Leaving GDM -- hopefully with a step in the right direction! --------
 
   17    -792.5080664534      1.37E-08  Gap = 65.56 eV  Normal BFGS step
 
   ------------------- Entering Geometric Direct Minimization ------------------
   GDM::trust : actual energy change is       -1.705302565824240E-012
   GDM::trust : predicted energy change was   -1.204801797822927E-014
   GDM::trust : updated trust radius is        0.330000000000000     
   GDM:         diagonal hessian shift is      0.000000000000000E+000
   GDM::PreWSS: input subspace size is                 16
   GDM::PreWSS: working subspace size set to           16
   GDM::PrEWSS: # of linearly dependent vectors =           15
   GDM::PrEWSS: Max dev from orthonormality =   2.135305821049371E-012
   GDM::BFGS:   lowest Hinv e-value    0.218204316752659     
   GDM::BFGS:   highest Hinv e-value    1.38186900984280     
   GDM::      : max scaling in EWCs is          2.20751137122417     
   GDM::      : max rotation in step is       -8.449834448194360E-009
   GDM::        grad.step =  -4.334235955851332E-015
   ------- Leaving GDM -- hopefully with a step in the right direction! --------
 
   18    -792.5080664534      1.11E-08  Gap = 65.56 eV  Normal BFGS step
 
   ------------------- Entering Geometric Direct Minimization ------------------
   GDM::trust : actual energy change is       -7.958078640513122E-013
   GDM::trust : predicted energy change was   -6.501353933777000E-015
   GDM::trust : updated trust radius is        0.330000000000000     
   GDM:         diagonal hessian shift is      0.000000000000000E+000
   GDM::PreWSS: input subspace size is                 17
   GDM::PreWSS: working subspace size set to           13
   GDM::PrEWSS: # of linearly dependent vectors =            8
   GDM::PrEWSS: Max dev from orthonormality =   4.367096961832573E-011
   GDM::BFGS:   lowest Hinv e-value    0.257654504687333     
   GDM::BFGS:   highest Hinv e-value    1.22492004113004     
   GDM::      : max scaling in EWCs is          2.20751157066037     
   GDM::      : max rotation in step is        8.863484776167063E-010
   GDM::        grad.step =  -2.012776577786144E-018
   ------- Leaving GDM -- hopefully with a step in the right direction! --------
 
   19    -792.5080664534      4.25E-10 Convergence criterion met
 ---------------------------------------
 One-Electron    Energy = -1932.5944743066
 Total Coulomb   Energy =   805.2512428351
 Alpha Exchange  Energy =    -6.8517457827
 Beta  Exchange  Energy =    -6.8517457827
 DFT   Exchange  Energy =   -54.7964452154
 DFT Correlation Energy =    -3.3142191598
 Nuclear Repu.   Energy =   406.6493209588
 Nuclear Attr.   Energy = -2676.0744292090
 Kinetic         Energy =   743.4799549023
 SCF time:  CPU 118.03 s  wall 12.54 s
 SCF   energy in the final basis set = -792.5080664534
 Total energy in the final basis set = -792.5080664534
 
 --------------------------------------------------------------
 
                    Orbital Energies (a.u.)
 --------------------------------------------------------------
 
 Alpha MOs
 -- Occupied --
-88.876 -19.179 -19.160 -19.160 -19.129  -7.948  -5.915  -5.905
 -5.902  -2.081  -2.067  -1.307  -1.288  -1.285  -1.283  -1.269
 -1.268  -0.962  -0.911  -0.903  -0.851  -0.653  -0.410  -0.401
 -0.399  -0.388  -0.379  -0.371  -0.356  -0.355  -0.334  -0.320
 -0.307  -0.304  -0.265  -0.225
 -- Virtual --
 -0.123  -0.104  -0.085  -0.081  -0.060  -0.053  -0.040  -0.024
  0.006   0.006   0.008   0.012   0.015   0.022   0.030   0.036
  0.042   0.052   0.067   0.094   0.103   0.104   0.123   0.132
  0.144   0.151   0.162   0.169   0.180   0.195   0.203   0.210
  0.214   0.223   0.226   0.234   0.239   0.244   0.260   0.265
  0.276   0.293   0.298   0.314   0.316   0.330   0.342   0.353
  0.389   0.404   0.447   0.514   0.551   0.574   0.592   0.653
  0.707   0.785   0.799   0.851   0.877   0.888   0.972   1.049
  1.135   1.184   1.193   1.209   1.213   1.219   1.257   1.279
  1.282   1.286   1.288   1.333   1.661   1.679   1.727   1.754
  1.766   1.768   1.775   1.800   1.806   1.808   1.818   1.828
  1.845   1.846   1.853   1.853   1.869   1.907   1.935   1.943
  1.953   2.089   2.159   2.301  13.433  15.592
 --------------------------------------------------------------
 
          Ground-State Mulliken Net Atomic Charges

     Atom                 Charge (a.u.)
  ----------------------------------------
      1 Zr                    1.638700
      2 O                    -0.965104
      3 O                    -0.572232
      4 O                    -0.965106
      5 Zr                    1.564325
      6 O                    -0.707945
      7 S                     0.007362
  ----------------------------------------
  Sum of atomic charges =     0.000000

 -----------------------------------------------------------------
                    Cartesian Multipole Moments
 -----------------------------------------------------------------
    Charge (ESU x 10^10)
                 0.0000
    Dipole Moment (Debye)
         X      -5.0138      Y      -2.4131      Z      -2.6113
       Tot       6.1465
    Quadrupole Moments (Debye-Ang)
        XX     -84.5148     XY       9.1823     YY     -79.6135
        XZ      21.1715     YZ       5.9488     ZZ     -80.7048
    Octopole Moments (Debye-Ang^2)
       XXX     -42.9142    XXY     -50.5154    XYY      -3.3308
       YYY     -50.3387    XXZ     -45.2212    XYZ      -1.9282
       YYZ       0.2879    XZZ      11.3392    YZZ     -15.9689
       ZZZ      -6.1262
    Hexadecapole Moments (Debye-Ang^3)
      XXXX   -2164.7406   XXXY    -106.6169   XXYY    -380.6231
      XYYY    -157.0461   YYYY    -317.3228   XXXZ     278.3978
      XXYZ      18.9472   XYYZ      34.0267   YYYZ      25.8912
      XXZZ    -426.9653   XYZZ     -43.8906   YYZZ     -89.2199
      XZZZ     121.7122   YZZZ      21.8305   ZZZZ    -246.7511
 -----------------------------------------------------------------
 Calculating analytic gradient of the SCF energy
 Gradient of SCF Energy
            1           2           3           4           5           6
    1   0.0000964  -0.0000634   0.0001875  -0.0002456   0.0000682  -0.0000486
    2   0.0000220  -0.0000729  -0.0000048  -0.0001172   0.0001245   0.0000254
    3   0.0000249  -0.0000688  -0.0000026   0.0000035  -0.0000435   0.0000664
            7
    1   0.0000055
    2   0.0000229
    3   0.0000200
 Max gradient component =       2.456E-04
 RMS gradient           =       8.840E-05
 Gradient time:  CPU 23.85 s  wall 3.72 s
 Geometry Optimization Parameters
   NAtoms,    NIC,     NZ,  NCons,   NDum,   NFix, NCnnct, MaxDiis
        7      46       0       0       0       0       0       0

 Cartesian Hessian Update
 Hessian Updated using BFGS Update


** GEOMETRY OPTIMIZATION IN CARTESIAN COORDINATES **
   Searching for a Minimum

   Optimization Cycle:  76

                       Coordinates (Angstroms)
     ATOM                X               Y               Z
      1  Zr       -2.2654530736   -0.3748180922   -0.1291547074
      2  O        -1.0401286846    1.1257360331   -0.6736765838
      3  O        -3.1149360881    0.1492845081    1.3441658153
      4  O        -0.5169596035   -1.1820555209    0.4518905317
      5  Zr        0.6625175646    0.3648109364    0.0232353116
      6  O         2.1894200324    0.1338916130   -1.1628652115
      7  S         3.0525298528    0.9713705226    0.1464048441
   Point Group: c1    Number of degrees of freedom:    15


   Energy is   -792.508066453


 Translations and Rotations Projected Out of Hessian

 15 Hessian modes will be used to form the next step
  Hessian Eigenvalues:
     0.004378    0.013283    0.018297    0.039350    0.058818    0.091154
     0.137411    0.193438    0.243219    0.270604    0.446550    0.508900
     0.524214    0.831794    0.954089

 Minimum Search - Taking Simple RFO Step
 Searching for Lamda that Minimizes Along All modes
 Value Taken    Lamda =  -0.00000400
 Step Taken.  Stepsize is  0.024656

                             Maximum     Tolerance    Cnvgd?
         Gradient           0.000246      0.000300     YES
         Displacement       0.012993      0.001200      NO
         Energy change     -0.000001      0.000001     YES


                       Distance Matrix (Angstroms)
             Zr(  1)   O (  2)   O (  3)   O (  4)   Zr(  5)   O (  6)
   O (  2)  2.012358
   O (  3)  1.779601  3.054500
   O (  4)  2.011585  2.620402  3.052557
   Zr(  5)  3.023787  1.990904  4.007551  1.991911
   O (  6)  4.601439  3.413656  5.866995  3.415208  1.947200
   S (  7)  5.492640  4.176867  6.336252  4.179931  2.468855  1.777784

 
 Final energy is   -792.508066453366     


 ******************************
 **  OPTIMIZATION CONVERGED  **
 ******************************

                       Coordinates (Angstroms)
     ATOM                X               Y               Z
      1  Zr       -2.2654530736   -0.3748180922   -0.1291547074
      2  O        -1.0401286846    1.1257360331   -0.6736765838
      3  O        -3.1149360881    0.1492845081    1.3441658153
      4  O        -0.5169596035   -1.1820555209    0.4518905317
      5  Zr        0.6625175646    0.3648109364    0.0232353116
      6  O         2.1894200324    0.1338916130   -1.1628652115
      7  S         3.0525298528    0.9713705226    0.1464048441

Z-matrix Print:
$molecule
0 1
Zr
O  1 1.947200
S  2 1.777784 1 82.890661
O  1 1.990904 2 120.179959 3 -130.330837 0
O  1 1.991911 2 120.219412 3 130.520940 0
Zr 5 2.011585 1 98.099635 2 124.319068 0
O  6 1.779601 5 107.095209 1 101.625548 0
$end

 
 --------------------------------------------------------------
 
                    Orbital Energies (a.u.)
 --------------------------------------------------------------
 
 Alpha MOs
 -- Occupied --
-88.876 -19.179 -19.160 -19.160 -19.129  -7.948  -5.915  -5.905
 -5.902  -2.081  -2.067  -1.307  -1.288  -1.285  -1.283  -1.269
 -1.268  -0.962  -0.911  -0.903  -0.851  -0.653  -0.410  -0.401
 -0.399  -0.388  -0.379  -0.371  -0.356  -0.355  -0.334  -0.320
 -0.307  -0.304  -0.265  -0.225
 -- Virtual --
 -0.123  -0.104  -0.085  -0.081  -0.060  -0.053  -0.040  -0.024
  0.006   0.006   0.008   0.012   0.015   0.022   0.030   0.036
  0.042   0.052   0.067   0.094   0.103   0.104   0.123   0.132
  0.144   0.151   0.162   0.169   0.180   0.195   0.203   0.210
  0.214   0.223   0.226   0.234   0.239   0.244   0.260   0.265
  0.276   0.293   0.298   0.314   0.316   0.330   0.342   0.353
  0.389   0.404   0.447   0.514   0.551   0.574   0.592   0.653
  0.707   0.785   0.799   0.851   0.877   0.888   0.972   1.049
  1.135   1.184   1.193   1.209   1.213   1.219   1.257   1.279
  1.282   1.286   1.288   1.333   1.661   1.679   1.727   1.754
  1.766   1.768   1.775   1.800   1.806   1.808   1.818   1.828
  1.845   1.846   1.853   1.853   1.869   1.907   1.935   1.943
  1.953   2.089   2.159   2.301  13.433  15.592
 --------------------------------------------------------------
 
          Ground-State Mulliken Net Atomic Charges

     Atom                 Charge (a.u.)
  ----------------------------------------
      1 Zr                    1.638700
      2 O                    -0.965104
      3 O                    -0.572232
      4 O                    -0.965106
      5 Zr                    1.564325
      6 O                    -0.707945
      7 S                     0.007362
  ----------------------------------------
  Sum of atomic charges =     0.000000

 -----------------------------------------------------------------
                    Cartesian Multipole Moments
 -----------------------------------------------------------------
    Charge (ESU x 10^10)
                 0.0000
    Dipole Moment (Debye)
         X      -5.0138      Y      -2.4131      Z      -2.6113
       Tot       6.1465
    Quadrupole Moments (Debye-Ang)
        XX     -84.5148     XY       9.1823     YY     -79.6135
        XZ      21.1715     YZ       5.9488     ZZ     -80.7048
    Octopole Moments (Debye-Ang^2)
       XXX     -42.9142    XXY     -50.5154    XYY      -3.3308
       YYY     -50.3387    XXZ     -45.2212    XYZ      -1.9282
       YYZ       0.2879    XZZ      11.3392    YZZ     -15.9689
       ZZZ      -6.1262
    Hexadecapole Moments (Debye-Ang^3)
      XXXX   -2164.7406   XXXY    -106.6169   XXYY    -380.6231
      XYYY    -157.0461   YYYY    -317.3228   XXXZ     278.3978
      XXYZ      18.9472   XYYZ      34.0267   YYYZ      25.8912
      XXZZ    -426.9653   XYZZ     -43.8906   YYZZ     -89.2199
      XZZZ     121.7122   YZZZ      21.8305   ZZZZ    -246.7511
 -----------------------------------------------------------------
Archival summary:
1\1\hpc3447\OPT\ProcedureUnspecified\BasisUnspecified\r214(+,1)\liqiuy\FriJan1719:34:272020FriJan1719:34:272020\0\\#,OPT,ProcedureUnspecified,BasisUnspecified,\\56,1\Zr\O,1,1.9472\S,2,1.77778,1,82.8907\O,1,1.9909,2,120.18,3,-130.331,0\O,1,1.99191,2,120.219,3,130.521,0\Zr,5,2.01159,1,98.0996,2,124.319,0\O,6,1.7796,5,107.095,1,101.626,0\\\@

 Total job time:  1996.92s(wall), 17223.10s(cpu) 
 Fri Jan 17 19:34:27 2020

        *************************************************************
        *                                                           *
        *  Thank you very much for using Q-Chem.  Have a nice day.  *
        *                                                           *
        *************************************************************


0 sent ACK to 0 
now end server 0 ... 
cleanup process ... done
