
Running Job 1 of 2 ZrOx.in
qchem ZrOx.in_11153.0 /tmp/5732554.priya/ZrOx.save/ 1
/usr/usc/qchem/4.4/bin/mpi/mpirun_qchem -machinefile /usr/usc/qchem/4.4/bin/mpi/machines -np 1 /usr/usc/qchem/4.4/exe/qcprog.exe ZrOx.in_11153.0 /tmp/5732554.priya/ZrOx.save/

Process 0 of 1 is on hpc3913.hpcc.usc.edu - thread support 0
initial socket setup ...start
initial socket setup ...done 
now start server 0 ... 
Check license passed

                  Welcome to Q-Chem
     A Quantum Leap Into The Future Of Chemistry


 Q-Chem 4.4, Q-Chem, Inc., Pleasanton, CA (2016)

 Y. Shao,  Z. Gan,  E. Epifanovsky,  A. T. B. Gilbert,  M. Wormit,  
 J. Kussmann,  A. W. Lange,  A. Behn,  J. Deng,  X. Feng,  D. Ghosh,  
 M. Goldey,  P. R. Horn,  L. D. Jacobson,  I. Kaliman,  F.Rob,  
 R. Z. Khaliullin,  T. Kus,  A. Landau,  J. Liu,  E. I. Proynov,  Y. M. Rhee,  
 R. M. Richard,  M. A. Rohrdanz,  R. P. Steele,  E. J. Sundstrom,  
 H. L. Woodcock III,  P. M. Zimmerman,  D. Zuev,  B. Albrecht,  E. Alguire,  
 B. Austin,  S. A. Baeppler,  G. J. O. Beran,  Y. A. Bernard,  E. Berquist,  
 K. Brandhorst,  K. B. Bravaya,  S. T. Brown,  D. Casanova,  C.-M. Chang,  
 Y. Chen,  S. H. Chien,  K. D. Closser,  M. P. Coons,  D. L. Crittenden,  
 S. Dasgupta,  M. Diedenhofen,  R. A. DiStasio Jr.,  H. Do,  A. D. Dutoi,  
 R. G. Edgar,  P.-T. Fang,  S. Fatehi,  Q. Feng,  L. Fusti-Molnar,  
 A. Ghysels,  A. Golubeva-Zadorozhnaya,  J. Gomes,  A. Gunina,  
 M. W. D. Hanson-Heine,  P. H. P. Harbach,  A. W. Hauser,  E. G. Hohenstein,  
 Z. C. Holden,  K. Hui,  T.-C. Jagau,  H. Ji,  B. Kaduk,  K. Khistyaev,  
 Jaehoon Kim,  Jihan Kim,  R. A. King,  P. Klunzinger,  D. Kosenkov,  
 T. Kowalczyk,  C. M. Krauter,  A. Kunitsa,  K. U. Lao,  A. Laurent,  
 K. V. Lawler,  D. Lefrancois,  S. Lehtola,  S. V. Levchenko,  C. Y. Lin,  
 Y.-S. Lin,  F. Liu,  E. Livshits,  R. C. Lochan,  A. Luenser,  P. Manohar,  
 S. F. Manzer,  S.-P. Mao,  Y. Mao,  N. Mardirossian,  A. V. Marenich,  
 L. A. Martinez-Martinez,  S. A. Maurer,  N. J. Mayhall,  J.-M. Mewes,  
 A. F. Morrison,  K. Nanda,  C. M. Oana,  R. Olivares-Amaya,  D. P. O'Neill,  
 J. A. Parkhill,  T. M. Perrine,  R. Peverati,  P. A. Pieniazek,  F. Plasser,  
 A. Prociuk,  D. R. Rehn,  E. Rosta,  N. J. Russ,  N. Sergueev,  
 S. M. Sharada,  S. Sharma,  D. W. Small,  A. Sodt,  T. Stauch,  T. Stein,  
 D. Stuck,  Y.-C. Su,  A. J. W. Thom,  T. Tsuchimochi,  L. Vogt,  O. Vydrov,  
 T. Wang,  M. A. Watson,  J. Wenzel,  A. White,  C. F. Williams,  
 V. Vanovschi,  S. Yeganeh,  S. R. Yost,  Z.-Q. You,  I. Y. Zhang,  X. Zhang,  
 Y. Zhao,  B. R. Brooks,  G. K. L. Chan,  D. M. Chipman,  C. J. Cramer,  
 W. A. Goddard III,  M. S. Gordon,  W. J. Hehre,  A. Klamt,  
 H. F. Schaefer III,  M. W. Schmidt,  C. D. Sherrill,  D. G. Truhlar,  
 A. Warshel,  X. Xu,  A. Aspuru-Guzik,  R. Baer,  A. T. Bell,  N. A. Besley,  
 J.-D. Chai,  A. Dreuw,  B. D. Dunietz,  T. R. Furlani,  S. R. Gwaltney,  
 C.-P. Hsu,  Y. Jung,  J. Kong,  D. S. Lambrecht,  W. Liang,  C. Ochsenfeld,  
 V. A. Rassolov,  L. V. Slipchenko,  J. E. Subotnik,  T. Van Voorhis,  
 J. M. Herbert,  A. I. Krylov,  P. M. W. Gill,  M. Head-Gordon

 Contributors to earlier versions of Q-Chem not listed above: 
 R. D. Adamson,  J. Baker,  E. F. C. Byrd,  A. K. Chakraborty,  C.-L. Cheng,  
 H. Dachsel,  R. J. Doerksen,  G. Hawkins,  A. Heyden,  S. Hirata,  
 G. Kedziora,  F. J. Keil,  C. Kelley,  P. P. Korambath,  W. Kurlancheek,  
 A. M. Lee,  M. S. Lee,  D. Liotard,  I. Lotan,  P. E. Maslen,  N. Nair,  
 D. Neuhauser,  R. Olson,  B. Peters,  J. Ritchie,  N. E. Schultz,  
 N. Shenvi,  A. C. Simmonett,  K. S. Thanthiriwatte,  Q. Wu,  W. Zhang

 Please cite Q-Chem as follows:
 Y. Shao et al., Mol. Phys. 113, 184-215 (2015)
 DOI: 10.1080/00268976.2014.952696

 Q-Chem 4.4.1 for Intel X86 Linux

 Parts of Q-Chem use Armadillo 5.200.1 (Boston Tea Smuggler).
 http://arma.sourceforge.net/

 Q-Chem begins on Fri Jan 17 19:04:01 2020  

Host: 
0

     Scratch files written to /tmp/5732554.priya/ZrOx.save//
 Jul2716 11668_ 21447  21445 5558   
 Parallel job on  1  processors
Processing $rem in /usr/usc/qchem/4.4/config/preferences.
 MEM_TOTAL  2000 

Checking the input file for inconsistencies... 	...done.

--------------------------------------------------------------
User input:
--------------------------------------------------------------
$comment
--------------------------------------------------------
A SINGLE POINT DFT CALCULATION WITH BASIS SET PROJECTION
--------------------------------------------------------
$end

$molecule
0 1
Zr 1.25038 -0.30074 0.00000
S 2.61263 1.33426 0.00000
O 2.08583 -1.78395 0.00000
O -0.17410 -0.11416 -1.28263
O -0.17410 -0.11416 1.28263
Zr -1.59620 0.08926 0.00000
O -2.76253 -1.15355 0.00000
O -2.37725 1.60446 0.00000
$end

$rem
JOBTYPE   SP
METHOD   B3LYP
BASIS   GEN
ECP   GEN
MAX_SCF_CYCLES   200
SCF_CONVERGENCE 8
SCF_PRINT 1
PDB_PRINT 2
THRESH 14
VARTHRESH 14
INCDFT FALSE
SYMMETRY False
Sym_ignore True
SCF_ALGORITHM GDM
XC_GRID 000128000302
DFT_D           EMPIRICAL_GRIMME3
DFT_D3_S6       1000
DFT_D3_RS6     1261
DFT_D3_S8      1703
DFT_D3_3BODY    FALSE
$end

$basis
O
6-31+G**
****
S
6-31+G**
****
Zr
LanL2DZ
****
$end

$ecp
Zr
LanL2DZ
****
$end

--------------------------------------------------------------
 ----------------------------------------------------------------
             Standard Nuclear Orientation (Angstroms)
    I     Atom           X                Y                Z
 ----------------------------------------------------------------
    1      Zr      1.2503800000    -0.3007400000     0.0000000000
    2      S       2.6126300000     1.3342600000     0.0000000000
    3      O       2.0858300000    -1.7839500000     0.0000000000
    4      O      -0.1741000000    -0.1141600000    -1.2826300000
    5      O      -0.1741000000    -0.1141600000     1.2826300000
    6      Zr     -1.5962000000     0.0892600000     0.0000000000
    7      O      -2.7625300000    -1.1535500000     0.0000000000
    8      O      -2.3772500000     1.6044600000     0.0000000000
 ----------------------------------------------------------------
 Nuclear Repulsion Energy =   520.1455638688 hartrees
 There are       40 alpha and       40 beta electrons

 Q-Chem warning in module /home/scratch/svnadmin/11668_zgan/qchem/forms1/BasisType.C, line 1419:

 Setting pure/cartesian flag to 2111 for general basis


 Requested basis set is non-standard
 There are 47 shells and 156 basis functions

 Total QAlloc Memory Limit   2000 MB
 Mega-Array Size        61 MB
 MEM_STATIC part        62 MB

                       Distance Matrix (Angstroms)
             Zr(  1)   S (  2)   O (  3)   O (  4)   O (  5)   Zr(  6)
   S (  2)  2.128133
   O (  3)  1.702319  3.162397
   O (  4)  1.925901  3.392481  3.088790
   O (  5)  1.925901  3.392481  3.088790  2.565260
   Zr(  6)  2.873172  4.389109  4.131133  1.925847  1.925847
   O (  7)  4.102527  5.922967  4.889172  3.070088  3.070088  1.704377
   O (  8)  4.097498  4.997190  5.603606  3.074519  3.074519  1.704661
             O (  7)
   O (  8)  2.784791
 
 A cutoff of  1.0D-14 yielded   1073 shell pairs
 There are     12044 function pairs (     13636 Cartesian)
 
 -------------------------------------------------------
 OpenMP Integral Computing Module                       
 Release: version 1.0, May 2013, Q-Chem Inc. Pittsburgh 
 -------------------------------------------------------
 Integral Job Info:
 Integral job number is                      11
 Integral operator is                         1
 short-range coefficients                     0
 long-range coefficients              100000000
 Omega coefficients                           0
 if combine SR and LR in K                    0
 Integral screening is                        0
 Integral computing path is                   2
 max size of driver memory is            800000
 size of driver memory is                593474
 size of scratch memory is             15166112
 max col of scratch BK array               1296
 max len of scratch array in speh3          155
 max len of scratch index in speh4           18
 max int batch size is                      520
 min int batch size is                       52
 fixed nKL is                                52
 max L of basis functions is                  2
 order of int derivative is                   0
 number of shells is                         47
 number of basis is                         166
 number of cartesian basis is               166
 number of contracted shell pairs          1073
 number of primitive shell pairs           4861
 maxK2 (contraction) of shell pair           36
 max number of K2 of shell pair               1
 max number of CS2 of shell pair             98
 max number of PS2 of shell pair            504
 mem total for path MDJ                   46168
 -------------------------------------------------------
 Requested basis set is non-standard
 Compound shells will be simplified
 There are 66 shells and 156 basis functions
 A cutoff of  1.0D-14 yielded   2117 shell pairs
 There are     11987 function pairs (     13579 Cartesian)
 Smallest overlap matrix eigenvalue = 4.06E-04

 Scale SEOQF with 1.000000e-01/1.000000e-01/1.000000e-01

 Standard Electronic Orientation quadrupole field applied
 Nucleus-field energy     =     0.0000000141 hartrees
 Guess MOs from core Hamiltonian diagonalization
 A restricted hybrid HF-DFT SCF calculation will be
 performed using Geometric Direct Minimization
 Exchange:     0.2000 Hartree-Fock + 0.0800 Slater + 0.7200 B88
 Correlation:  0.1900 VWN1RPA + 0.8100 LYP
 Using Euler-Maclaurin-Lebedev (128,302) quadrature formula
 Dispersion:   Grimme D3
 SCF converges when RMS gradient is below 1.0E-08
 Maximum number of minimization steps = 200
 using 12 threads for integral computing 
 -------------------------------------------------------
 OpenMP BLAS3 based DFT computing Module                
 Release: version 1.0, May 2013, Q-Chem Inc. Pittsburgh 
 -------------------------------------------------------
 
   ------------------- Entering Geometric Direct Minimization ------------------
   GDM:         diagonal hessian shift is      0.000000000000000E+000
   GDM::PreWSS: input subspace size is                  1
   GDM::PreWSS: working subspace size set to            1
   GDM::PrEWSS: # of linearly dependent vectors =            0
   GDM::PrEWSS: Max dev from orthonormality =   0.000000000000000E+000
   GDM::BFGS:   lowest Hinv e-value     1.00000000000000     
   GDM::BFGS:   highest Hinv e-value    1.00000000000000     
   GDM::      : max scaling in EWCs is          1.41421356237309     
   GDM::      : max rotation in step is        0.127093065567456     
   GDM::        grad.step =   -2.52640035149941     
   ------- Leaving GDM -- hopefully with a step in the right direction! --------
 
 ---------------------------------------
  Cycle       Energy        RMS Gradient
 ---------------------------------------
    1    -803.4873122346      2.08E+00  Gap = 0.00 eV  Descent step
 
   ------------------- Entering Geometric Direct Minimization ------------------
   GDM::trust : actual energy change is        -4.95530158788858     
   GDM::trust : predicted energy change was   -0.163350000000000     
   GDM::trust : updated trust radius is        0.330000000000000     
   GDM:         diagonal hessian shift is      0.000000000000000E+000
   GDM::PreWSS: input subspace size is                  2
   GDM::PreWSS: working subspace size set to            2
   GDM::PrEWSS: # of linearly dependent vectors =            0
   GDM::PrEWSS: Max dev from orthonormality =   2.393918396847994E-014
   GDM::BFGS:   lowest Hinv e-value    0.553782684148137     
   GDM::BFGS:   highest Hinv e-value    2.64374976846839     
   GDM::      : max scaling in EWCs is          1.41421356237309     
   GDM::      : max rotation in step is        9.921257931263280E-002
   GDM::        grad.step =   -2.36526564920706     
   ------- Leaving GDM -- hopefully with a step in the right direction! --------
 
    2    -808.4426138225      1.52E+00  Gap = 0.00 eV  Descent step
 
   ------------------- Entering Geometric Direct Minimization ------------------
   GDM::trust : actual energy change is        -4.63759881039016     
   GDM::trust : predicted energy change was   -0.139954396074034     
   GDM::trust : updated trust radius is        0.330000000000000     
   GDM::search:  On step            1 .  The current bracket is:
       left   : x =  0.0000E+00, e =      -808.4426138225, g = -0.6866E+01
       current: x =  0.3445E+00, e =      -813.0802126329, g = -0.6537E+01
       right  : x =  0.1000E+04, e =      1000.0000000000, g =  0.1000E+04
       next   : x =  0.3445E+01
   GDM::      : max rotation in step is        0.992125793126328     
   ------- Leaving GDM -- hopefully with a step in the right direction! --------
 
    3    -813.0802126329      2.12E+00  Gap = 0.00 eV  Line search: understep
 
   ------------------- Entering Geometric Direct Minimization ------------------
   GDM::trust : actual energy change is        -15.4043758117519     
   GDM::trust : predicted energy change was   -0.139954396074034     
   GDM::trust : updated trust radius is        0.330000000000000     
   GDM:         diagonal hessian shift is      0.000000000000000E+000
   GDM::PreWSS: input subspace size is                  3
   GDM::PreWSS: working subspace size set to            3
   GDM::PrEWSS: # of linearly dependent vectors =            0
   GDM::PrEWSS: Max dev from orthonormality =   1.725399337293432E-014
   GDM::BFGS:   lowest Hinv e-value    0.181050304635725     
   GDM::BFGS:   highest Hinv e-value    2.75307777924487     
   GDM::      : max scaling in EWCs is          2.82842712474619     
   GDM::      : max rotation in step is        0.229379376722857     
   GDM::        grad.step =   -2.39949508946351     
   ------- Leaving GDM -- hopefully with a step in the right direction! --------
 
    4    -823.8469896343      1.79E+00  Gap = 0.00 eV  Descent step
 
   ------------------- Entering Geometric Direct Minimization ------------------
   GDM::trust : actual energy change is        -4.60625514114258     
   GDM::trust : predicted energy change was   -0.281660639808805     
   GDM::trust : updated trust radius is        0.330000000000000     
   GDM:         diagonal hessian shift is      0.000000000000000E+000
   GDM::PreWSS: input subspace size is                  4
   GDM::PreWSS: working subspace size set to            4
   GDM::PrEWSS: # of linearly dependent vectors =            0
   GDM::PrEWSS: Max dev from orthonormality =   5.073025333146575E-014
   GDM::BFGS:   lowest Hinv e-value    0.459174153686439     
   GDM::BFGS:   highest Hinv e-value    3.90476462752200     
   GDM::      : max scaling in EWCs is          2.82842712474619     
   GDM::      : max rotation in step is       -0.412305537720147     
   GDM::        grad.step =   -2.08887400077970     
   ------- Leaving GDM -- hopefully with a step in the right direction! --------
 
    5    -828.4532447754      2.80E+00  Gap = 0.00 eV  Descent step
 
   ------------------- Entering Geometric Direct Minimization ------------------
   GDM::trust : actual energy change is        -4.01538825500779     
   GDM::trust : predicted energy change was   -0.169785560395010     
   GDM::trust : updated trust radius is        0.330000000000000     
   GDM:         diagonal hessian shift is      0.000000000000000E+000
   GDM::PreWSS: input subspace size is                  5
   GDM::PreWSS: working subspace size set to            5
   GDM::PrEWSS: # of linearly dependent vectors =            0
   GDM::PrEWSS: Max dev from orthonormality =   1.826316875508383E-013
   GDM::BFGS:   lowest Hinv e-value    0.492584797412151     
   GDM::BFGS:   highest Hinv e-value    3.69605938606311     
   GDM::      : max scaling in EWCs is          2.82842712474619     
   GDM::      : max rotation in step is        0.232462010113561     
   GDM::        grad.step =   -1.63906513620217     
   ------- Leaving GDM -- hopefully with a step in the right direction! --------
 
    6    -832.4686330304      1.24E+00  Gap = 0.00 eV  Descent step
 
   ------------------- Entering Geometric Direct Minimization ------------------
   GDM::trust : actual energy change is        -3.19493707753145     
   GDM::trust : predicted energy change was   -0.149540403470371     
   GDM::trust : updated trust radius is        0.330000000000000     
   GDM:         diagonal hessian shift is      0.000000000000000E+000
   GDM::PreWSS: input subspace size is                  6
   GDM::PreWSS: working subspace size set to            6
   GDM::PrEWSS: # of linearly dependent vectors =            0
   GDM::PrEWSS: Max dev from orthonormality =   1.082398060070489E-013
   GDM::BFGS:   lowest Hinv e-value    0.388952070011545     
   GDM::BFGS:   highest Hinv e-value    4.16983674302015     
   GDM::      : max scaling in EWCs is          2.82842712474619     
   GDM::      : max rotation in step is       -0.213022718096652     
   GDM::        grad.step =   -1.44592821396789     
   ------- Leaving GDM -- hopefully with a step in the right direction! --------
 
    7    -835.6635701080      1.00E+00  Gap = 0.00 eV  Descent step
 
   ------------------- Entering Geometric Direct Minimization ------------------
   GDM::trust : actual energy change is        -2.80411351066641     
   GDM::trust : predicted energy change was   -0.140714375142901     
   GDM::trust : updated trust radius is        0.330000000000000     
   GDM:         diagonal hessian shift is      0.000000000000000E+000
   GDM::PreWSS: input subspace size is                  7
   GDM::PreWSS: working subspace size set to            7
   GDM::PrEWSS: # of linearly dependent vectors =            0
   GDM::PrEWSS: Max dev from orthonormality =   2.479058625048935E-013
   GDM::BFGS:   lowest Hinv e-value    0.310636173049701     
   GDM::BFGS:   highest Hinv e-value    4.62484677334312     
   GDM::      : max scaling in EWCs is          2.82842712474619     
   GDM::      : max rotation in step is       -0.184495085824654     
   GDM::        grad.step =   -1.29423455792293     
   ------- Leaving GDM -- hopefully with a step in the right direction! --------
 
    8    -838.4676836186      1.34E+00  Gap = 0.00 eV  Descent step
 
   ------------------- Entering Geometric Direct Minimization ------------------
   GDM::trust : actual energy change is        -2.50137917965196     
   GDM::trust : predicted energy change was   -0.138560042619010     
   GDM::trust : updated trust radius is        0.330000000000000     
   GDM:         diagonal hessian shift is      0.000000000000000E+000
   GDM::PreWSS: input subspace size is                  8
   GDM::PreWSS: working subspace size set to            8
   GDM::PrEWSS: # of linearly dependent vectors =            0
   GDM::PrEWSS: Max dev from orthonormality =   6.531442053869796E-013
   GDM::BFGS:   lowest Hinv e-value    0.255351902583334     
   GDM::BFGS:   highest Hinv e-value    5.13922396944914     
   GDM::      : max scaling in EWCs is          2.82842712474619     
   GDM::      : max rotation in step is       -0.169229793625382     
   GDM::        grad.step =   -1.22461759978965     
   ------- Leaving GDM -- hopefully with a step in the right direction! --------
 
    9    -840.9690627983      1.15E+00  Gap = 0.00 eV  Descent step
 
   ------------------- Entering Geometric Direct Minimization ------------------
   GDM::trust : actual energy change is        -2.31778943783468     
   GDM::trust : predicted energy change was   -0.140278320428796     
   GDM::trust : updated trust radius is        0.330000000000000     
   GDM:         diagonal hessian shift is      0.000000000000000E+000
   GDM::PreWSS: input subspace size is                  9
   GDM::PreWSS: working subspace size set to            9
   GDM::PrEWSS: # of linearly dependent vectors =            0
   GDM::PrEWSS: Max dev from orthonormality =   1.016797757102950E-012
   GDM::BFGS:   lowest Hinv e-value    0.220829893745276     
   GDM::BFGS:   highest Hinv e-value    5.84061277749243     
   GDM::      : max scaling in EWCs is          2.82842712474619     
   GDM::      : max rotation in step is       -0.158709969132712     
   GDM::        grad.step =   -1.07929632230688     
   ------- Leaving GDM -- hopefully with a step in the right direction! --------
 
   10    -843.2868522361      5.56E-01  Gap = 0.00 eV  Descent step
 
   ------------------- Entering Geometric Direct Minimization ------------------
   GDM::trust : actual energy change is        -2.08093518642056     
   GDM::trust : predicted energy change was   -0.140469721906641     
   GDM::trust : updated trust radius is        0.330000000000000     
   GDM:         diagonal hessian shift is      0.000000000000000E+000
   GDM::PreWSS: input subspace size is                 10
   GDM::PreWSS: working subspace size set to           10
   GDM::PrEWSS: # of linearly dependent vectors =            0
   GDM::PrEWSS: Max dev from orthonormality =   1.650721226376106E-012
   GDM::BFGS:   lowest Hinv e-value    0.174669089983274     
   GDM::BFGS:   highest Hinv e-value    6.59527068237310     
   GDM::      : max scaling in EWCs is          2.82842712474619     
   GDM::      : max rotation in step is       -0.209772924913999     
   GDM::        grad.step =   -1.03464736010482     
   ------- Leaving GDM -- hopefully with a step in the right direction! --------
 
   11    -845.3677874225      7.05E-01  Gap = 0.00 eV  Descent step
 
   ------------------- Entering Geometric Direct Minimization ------------------
   GDM::trust : actual energy change is        -1.98538240821745     
   GDM::trust : predicted energy change was   -0.135623018621307     
   GDM::trust : updated trust radius is        0.330000000000000     
   GDM:         diagonal hessian shift is      0.000000000000000E+000
   GDM::PreWSS: input subspace size is                 11
   GDM::PreWSS: working subspace size set to           11
   GDM::PrEWSS: # of linearly dependent vectors =            0
   GDM::PrEWSS: Max dev from orthonormality =   1.050395881385668E-012
   GDM::BFGS:   lowest Hinv e-value    0.159832806918709     
   GDM::BFGS:   highest Hinv e-value    7.38073659325528     
   GDM::      : max scaling in EWCs is          2.82842712474619     
   GDM::      : max rotation in step is        0.199575595966513     
   GDM::        grad.step =  -0.987412170670886     
   ------- Leaving GDM -- hopefully with a step in the right direction! --------
 
   12    -847.3531698308      8.52E-01  Gap = 0.00 eV  Descent step
 
   ------------------- Entering Geometric Direct Minimization ------------------
   GDM::trust : actual energy change is        -1.90493117358517     
   GDM::trust : predicted energy change was   -0.141399471872259     
   GDM::trust : updated trust radius is        0.330000000000000     
   GDM:         diagonal hessian shift is      0.000000000000000E+000
   GDM::PreWSS: input subspace size is                 12
   GDM::PreWSS: working subspace size set to           12
   GDM::PrEWSS: # of linearly dependent vectors =            0
   GDM::PrEWSS: Max dev from orthonormality =   1.077513078762138E-012
   GDM::BFGS:   lowest Hinv e-value    0.140317923755348     
   GDM::BFGS:   highest Hinv e-value    8.15390758944929     
   GDM::      : max scaling in EWCs is          2.82842712474619     
   GDM::      : max rotation in step is       -0.483080947541451     
   GDM::        grad.step =   -1.10713165153170     
   ------- Leaving GDM -- hopefully with a step in the right direction! --------
 
   13    -849.2581010043      1.74E+00  Gap = 0.00 eV  Descent step
 
   ------------------- Entering Geometric Direct Minimization ------------------
   GDM::trust : actual energy change is        -1.83726631283332     
   GDM::trust : predicted energy change was   -0.179112001406650     
   GDM::trust : updated trust radius is        0.330000000000000     
   GDM:         diagonal hessian shift is      0.000000000000000E+000
   GDM::PreWSS: input subspace size is                 13
   GDM::PreWSS: working subspace size set to           13
   GDM::PrEWSS: # of linearly dependent vectors =            0
   GDM::PrEWSS: Max dev from orthonormality =   9.117472402064841E-013
   GDM::BFGS:   lowest Hinv e-value    0.153239354292135     
   GDM::BFGS:   highest Hinv e-value    9.05082743337015     
   GDM::      : max scaling in EWCs is          2.82842712474619     
   GDM::      : max rotation in step is       -0.250921390996032     
   GDM::        grad.step =  -0.979135807710392     
   ------- Leaving GDM -- hopefully with a step in the right direction! --------
 
   14    -851.0953673172      7.98E-01  Gap = -169.43 eV  Descent step
 
   ------------------- Entering Geometric Direct Minimization ------------------
   GDM::trust : actual energy change is        -1.80665324719439     
   GDM::trust : predicted energy change was   -0.168146580044804     
   GDM::trust : updated trust radius is        0.330000000000000     
   GDM:         diagonal hessian shift is      0.000000000000000E+000
   GDM::PreWSS: input subspace size is                 14
   GDM::PreWSS: working subspace size set to           14
   GDM::PrEWSS: # of linearly dependent vectors =            0
   GDM::PrEWSS: Max dev from orthonormality =   1.625345691369517E-012
   GDM::BFGS:   lowest Hinv e-value    0.155208104843381     
   GDM::BFGS:   highest Hinv e-value    9.53399738564368     
   GDM::      : max scaling in EWCs is          2.82842712474619     
   GDM::      : max rotation in step is       -0.153183327672977     
   GDM::        grad.step =  -0.875706059184627     
   ------- Leaving GDM -- hopefully with a step in the right direction! --------
 
   15    -852.9020205644      8.60E-01  Gap = -169.43 eV  Descent step
 
   ------------------- Entering Geometric Direct Minimization ------------------
   GDM::trust : actual energy change is        -1.69705746484635     
   GDM::trust : predicted energy change was   -0.150246296232803     
   GDM::trust : updated trust radius is        0.330000000000000     
   GDM:         diagonal hessian shift is      0.000000000000000E+000
   GDM::PreWSS: input subspace size is                 15
   GDM::PreWSS: working subspace size set to           15
   GDM::PrEWSS: # of linearly dependent vectors =            0
   GDM::PrEWSS: Max dev from orthonormality =   1.636177304753517E-012
   GDM::BFGS:   lowest Hinv e-value    0.193720748741204     
   GDM::BFGS:   highest Hinv e-value    10.0300038754271     
   GDM::      : max scaling in EWCs is          2.82842712474619     
   GDM::      : max rotation in step is       -0.263740161470187     
   GDM::        grad.step =  -0.966046610738328     
   ------- Leaving GDM -- hopefully with a step in the right direction! --------
 
   16    -854.5990780292      1.14E+00  Gap = -169.43 eV  Descent step
 
   ------------------- Entering Geometric Direct Minimization ------------------
   GDM::trust : actual energy change is        -1.68585011843481     
   GDM::trust : predicted energy change was   -0.143857315075469     
   GDM::trust : updated trust radius is        0.330000000000000     
   GDM:         diagonal hessian shift is      0.000000000000000E+000
   GDM::PreWSS: input subspace size is                 16
   GDM::PreWSS: working subspace size set to           16
   GDM::PrEWSS: # of linearly dependent vectors =            0
   GDM::PrEWSS: Max dev from orthonormality =   2.359841488885905E-012
   GDM::BFGS:   lowest Hinv e-value    0.169430936323569     
   GDM::BFGS:   highest Hinv e-value    10.5677442879258     
   GDM::      : max scaling in EWCs is          2.82842712474619     
   GDM::      : max rotation in step is       -0.247744581715781     
   GDM::        grad.step =  -0.929860653364033     
   ------- Leaving GDM -- hopefully with a step in the right direction! --------
 
   17    -856.2849281477      1.10E+00  Gap = -169.43 eV  Descent step
 
   ------------------- Entering Geometric Direct Minimization ------------------
   GDM::trust : actual energy change is        -1.63355094183339     
   GDM::trust : predicted energy change was   -0.180765166834270     
   GDM::trust : updated trust radius is        0.330000000000000     
   GDM:         diagonal hessian shift is      0.000000000000000E+000
   GDM::PreWSS: input subspace size is                 17
   GDM::PreWSS: working subspace size set to           17
   GDM::PrEWSS: # of linearly dependent vectors =            0
   GDM::PrEWSS: Max dev from orthonormality =   1.827767104334299E-012
   GDM::BFGS:   lowest Hinv e-value    0.131448901641073     
   GDM::BFGS:   highest Hinv e-value    11.0684472300839     
   GDM::      : max scaling in EWCs is          2.82842712474619     
   GDM::      : max rotation in step is       -0.296361569914460     
   GDM::        grad.step =  -0.961304436460216     
   ------- Leaving GDM -- hopefully with a step in the right direction! --------
 
   18    -857.9184790895      1.45E+00  Gap = -169.43 eV  Descent step
 
   ------------------- Entering Geometric Direct Minimization ------------------
   GDM::trust : actual energy change is        -1.67115053079328     
   GDM::trust : predicted energy change was   -0.190466854553768     
   GDM::trust : updated trust radius is        0.330000000000000     
   GDM:         diagonal hessian shift is      0.000000000000000E+000
   GDM::PreWSS: input subspace size is                 18
   GDM::PreWSS: working subspace size set to           18
   GDM::PrEWSS: # of linearly dependent vectors =            0
   GDM::PrEWSS: Max dev from orthonormality =   8.692543213006942E-013
   GDM::BFGS:   lowest Hinv e-value    9.099792604436853E-002
   GDM::BFGS:   highest Hinv e-value    11.3969023594351     
   GDM::      : max scaling in EWCs is          2.82842712474619     
   GDM::      : max rotation in step is        0.523494840436542     
   GDM::        grad.step =   -1.00613280298526     
   ------- Leaving GDM -- hopefully with a step in the right direction! --------
 
   19    -859.5896296203      1.71E+00  Gap = -169.43 eV  Descent step
 
   ------------------- Entering Geometric Direct Minimization ------------------
   GDM::trust : actual energy change is        -1.61894397357855     
   GDM::trust : predicted energy change was   -0.184898710988029     
   GDM::trust : updated trust radius is        0.330000000000000     
   GDM:         diagonal hessian shift is      0.000000000000000E+000
   GDM::PreWSS: input subspace size is                 19
   GDM::PreWSS: working subspace size set to           18
   GDM::PrEWSS: # of linearly dependent vectors =            0
   GDM::PrEWSS: Max dev from orthonormality =   1.314240383187837E-012
   GDM::BFGS:   lowest Hinv e-value    7.020474997568039E-002
   GDM::BFGS:   highest Hinv e-value    12.1515692363260     
   GDM::      : max scaling in EWCs is          2.82842712474619     
   GDM::      : max rotation in step is       -0.420079765850865     
   GDM::        grad.step =  -0.813233539215730     
   ------- Leaving GDM -- hopefully with a step in the right direction! --------
 
   20    -861.2085735939      1.11E+00  Gap = -169.43 eV  Descent step
 
   ------------------- Entering Geometric Direct Minimization ------------------
   GDM::trust : actual energy change is       -0.984169737901198     
   GDM::trust : predicted energy change was   -0.336132701323368     
   GDM::trust : updated trust radius is        0.330000000000000     
   GDM:         diagonal hessian shift is      0.000000000000000E+000
   GDM::PreWSS: input subspace size is                 19
   GDM::PreWSS: working subspace size set to           18
   GDM::PrEWSS: # of linearly dependent vectors =            0
   GDM::PrEWSS: Max dev from orthonormality =   1.232833279907197E-012
   GDM::BFGS:   lowest Hinv e-value    0.131261365053500     
   GDM::BFGS:   highest Hinv e-value    12.2746497323063     
   GDM::      : max scaling in EWCs is          2.82842712474619     
   GDM::      : max rotation in step is       -0.188022678011186     
   GDM::        grad.step =  -0.616419199205445     
   ------- Leaving GDM -- hopefully with a step in the right direction! --------
 
   21    -862.1927433318      4.81E-01  Gap = -169.43 eV  Descent step
 
   ------------------- Entering Geometric Direct Minimization ------------------
   GDM::trust : actual energy change is        -1.09582390421861     
   GDM::trust : predicted energy change was   -0.190911972071093     
   GDM::trust : updated trust radius is        0.330000000000000     
   GDM:         diagonal hessian shift is      0.000000000000000E+000
   GDM::PreWSS: input subspace size is                 19
   GDM::PreWSS: working subspace size set to           18
   GDM::PrEWSS: # of linearly dependent vectors =            0
   GDM::PrEWSS: Max dev from orthonormality =   6.813161146368429E-013
   GDM::BFGS:   lowest Hinv e-value    0.121680073518493     
   GDM::BFGS:   highest Hinv e-value    12.6270911254499     
   GDM::      : max scaling in EWCs is          2.82842712474619     
   GDM::      : max rotation in step is       -0.444377666076976     
   GDM::        grad.step =  -0.499934638251922     
   ------- Leaving GDM -- hopefully with a step in the right direction! --------
 
   22    -863.2885672360      7.21E-01  Gap = -169.43 eV  Descent step
 
   ------------------- Entering Geometric Direct Minimization ------------------
   GDM::trust : actual energy change is       -0.821323221549164     
   GDM::trust : predicted energy change was   -0.164550899463745     
   GDM::trust : updated trust radius is        0.330000000000000     
   GDM:         diagonal hessian shift is      0.000000000000000E+000
   GDM::PreWSS: input subspace size is                 19
   GDM::PreWSS: working subspace size set to           18
   GDM::PrEWSS: # of linearly dependent vectors =            0
   GDM::PrEWSS: Max dev from orthonormality =   8.421249808598930E-013
   GDM::BFGS:   lowest Hinv e-value    8.058701461746655E-002
   GDM::BFGS:   highest Hinv e-value    14.2291911130251     
   GDM::      : max scaling in EWCs is          2.82842712474619     
   GDM::      : max rotation in step is       -0.168448013866866     
   GDM::        grad.step =  -0.376487982081327     
   ------- Leaving GDM -- hopefully with a step in the right direction! --------
 
   23    -864.1098904575      2.13E-01  Gap = -169.43 eV  Descent step
 
   ------------------- Entering Geometric Direct Minimization ------------------
   GDM::trust : actual energy change is       -0.417822497856378     
   GDM::trust : predicted energy change was   -0.197447414393525     
   GDM::trust : updated trust radius is        0.330000000000000     
   GDM:         diagonal hessian shift is      0.000000000000000E+000
   GDM::PreWSS: input subspace size is                 19
   GDM::PreWSS: working subspace size set to           18
   GDM::PrEWSS: # of linearly dependent vectors =            0
   GDM::PrEWSS: Max dev from orthonormality =   7.113892808163769E-013
   GDM::BFGS:   lowest Hinv e-value    7.746411870181007E-002
   GDM::BFGS:   highest Hinv e-value    10.2358088848395     
   GDM::      : max scaling in EWCs is          2.82842712474619     
   GDM::      : max rotation in step is       -0.484716120103078     
   GDM::        grad.step =  -0.504744198975723     
   ------- Leaving GDM -- hopefully with a step in the right direction! --------
 
   24    -864.5277129554      9.54E-01  Gap = -169.43 eV  Descent step
 
   ------------------- Entering Geometric Direct Minimization ------------------
   GDM::trust : actual energy change is       -9.026628725462160E-002
   GDM::trust : predicted energy change was   -0.561752605022219     
   GDM::trust : updated trust radius is        0.330000000000000     
   GDM:         diagonal hessian shift is      0.000000000000000E+000
   GDM::PreWSS: input subspace size is                 19
   GDM::PreWSS: working subspace size set to           18
   GDM::PrEWSS: # of linearly dependent vectors =            0
   GDM::PrEWSS: Max dev from orthonormality =   3.228944889244190E-013
   GDM::BFGS:   lowest Hinv e-value    9.780210765984744E-002
   GDM::BFGS:   highest Hinv e-value    15.8100000816905     
   GDM::      : max scaling in EWCs is          2.82842712474619     
   GDM::      : max rotation in step is        0.187548358742092     
   GDM::        grad.step =  -0.398081125484911     
   ------- Leaving GDM -- hopefully with a step in the right direction! --------
 
   25    -864.6179792426      4.65E-01  Gap = -169.43 eV  Descent step
 
   ------------------- Entering Geometric Direct Minimization ------------------
   GDM::trust : actual energy change is       -0.396829389468621     
   GDM::trust : predicted energy change was   -0.336572966991245     
   GDM::trust : updated trust radius is        0.330000000000000     
   GDM:         diagonal hessian shift is      0.000000000000000E+000
   GDM::PreWSS: input subspace size is                 19
   GDM::PreWSS: working subspace size set to           18
   GDM::PrEWSS: # of linearly dependent vectors =            0
   GDM::PrEWSS: Max dev from orthonormality =   2.446549907109130E-013
   GDM::BFGS:   lowest Hinv e-value    9.843897227968983E-002
   GDM::BFGS:   highest Hinv e-value    11.0504725082875     
   GDM::      : max scaling in EWCs is          2.82842712474619     
   GDM::      : max rotation in step is       -0.524876981463578     
   GDM::        grad.step =  -0.448964983288837     
   ------- Leaving GDM -- hopefully with a step in the right direction! --------
 
   26    -865.0148086321      7.65E-01  Gap = -169.43 eV  Descent step
 
   ------------------- Entering Geometric Direct Minimization ------------------
   GDM::trust : actual energy change is       -0.362448913298408     
   GDM::trust : predicted energy change was   -0.308921893275735     
   GDM::trust : updated trust radius is        0.330000000000000     
   GDM:         diagonal hessian shift is      0.000000000000000E+000
   GDM::PreWSS: input subspace size is                 19
   GDM::PreWSS: working subspace size set to           18
   GDM::PrEWSS: # of linearly dependent vectors =            0
   GDM::PrEWSS: Max dev from orthonormality =   2.418620859145904E-013
   GDM::BFGS:   lowest Hinv e-value    0.101221696390744     
   GDM::BFGS:   highest Hinv e-value    13.8534175676064     
   GDM::      : max scaling in EWCs is          2.82842712474619     
   GDM::      : max rotation in step is        0.262998349676081     
   GDM::        grad.step =  -0.521940474514849     
   ------- Leaving GDM -- hopefully with a step in the right direction! --------
 
   27    -865.3772575454      5.30E-01  Gap = -169.43 eV  Descent step
 
   ------------------- Entering Geometric Direct Minimization ------------------
   GDM::trust : actual energy change is       -0.258713843175542     
   GDM::trust : predicted energy change was   -0.418790377044566     
   GDM::trust : updated trust radius is        0.330000000000000     
   GDM:         diagonal hessian shift is      0.000000000000000E+000
   GDM::PreWSS: input subspace size is                 19
   GDM::PreWSS: working subspace size set to           18
   GDM::PrEWSS: # of linearly dependent vectors =            0
   GDM::PrEWSS: Max dev from orthonormality =   1.279445299706694E-013
   GDM::BFGS:   lowest Hinv e-value    0.107444008505654     
   GDM::BFGS:   highest Hinv e-value    14.4439291561451     
   GDM::      : max scaling in EWCs is          2.82842712474619     
   GDM::      : max rotation in step is        0.385148679974682     
   GDM::        grad.step =  -0.544727516688920     
   ------- Leaving GDM -- hopefully with a step in the right direction! --------
 
   28    -865.6359713886      7.47E-01  Gap = -169.43 eV  Descent step
 
   ------------------- Entering Geometric Direct Minimization ------------------
   GDM::trust : actual energy change is       -0.289522822864342     
   GDM::trust : predicted energy change was   -0.462242133606361     
   GDM::trust : updated trust radius is        0.330000000000000     
   GDM:         diagonal hessian shift is      0.000000000000000E+000
   GDM::PreWSS: input subspace size is                 19
   GDM::PreWSS: working subspace size set to           18
   GDM::PrEWSS: # of linearly dependent vectors =            0
   GDM::PrEWSS: Max dev from orthonormality =   5.025493909904810E-014
   GDM::BFGS:   lowest Hinv e-value    7.026340987988790E-002
   GDM::BFGS:   highest Hinv e-value    10.6431586573146     
   GDM::      : max scaling in EWCs is          2.82842712474619     
   GDM::      : max rotation in step is       -0.527465966565683     
   GDM::        grad.step =  -0.563948844900877     
   ------- Leaving GDM -- hopefully with a step in the right direction! --------
 
   29    -865.9254942114      9.66E-01  Gap = -169.43 eV  Descent step
 
   ------------------- Entering Geometric Direct Minimization ------------------
   GDM::trust : actual energy change is        8.997283993062410E-002
   GDM::trust : predicted energy change was   -0.736174240517586     
   GDM::trust : updated trust radius is        0.108900000000000     
   GDM::search:  On step            1 .  The current bracket is:
       left   : x =  0.0000E+00, e =      -865.9254942114, g = -0.7642E+00
       current: x =  0.7380E+00, e =      -865.8355213715, g =  0.6914E+00
       right  : x =  0.1000E+04, e =      1000.0000000000, g =  0.1000E+04
       next   : x =  0.3182E+00
   GDM::      : max rotation in step is       -0.227446060796937     
   ------- Leaving GDM -- hopefully with a step in the right direction! --------
 
   30    -865.8355213715      1.02E+00  Gap = -169.43 eV  Line search: overstep
 
   ------------------- Entering Geometric Direct Minimization ------------------
   GDM::trust : actual energy change is       -0.246415221325037     
   GDM::trust : predicted energy change was   -0.736174240517586     
   GDM::trust : updated trust radius is        0.108900000000000     
   GDM:         diagonal hessian shift is      0.000000000000000E+000
   GDM::PreWSS: input subspace size is                 19
   GDM::PreWSS: working subspace size set to           18
   GDM::PrEWSS: # of linearly dependent vectors =            0
   GDM::PrEWSS: Max dev from orthonormality =   7.636252741249905E-014
   GDM::BFGS:   lowest Hinv e-value    5.696895661102051E-002
   GDM::BFGS:   highest Hinv e-value    14.9181268943962     
   GDM::      : max scaling in EWCs is          2.82842712474619     
   GDM::      : max rotation in step is       -8.745239528229466E-002
   GDM::        grad.step =  -7.516918477193828E-002
   ------- Leaving GDM -- hopefully with a step in the right direction! --------
 
   31    -866.1719094328      1.96E-01  Gap = -169.43 eV  Descent step
 
   ------------------- Entering Geometric Direct Minimization ------------------
   GDM::trust : actual energy change is       -0.124787179956797     
   GDM::trust : predicted energy change was   -2.548721396696280E-002
   GDM::trust : updated trust radius is        0.330000000000000     
   GDM:         diagonal hessian shift is      0.000000000000000E+000
   GDM::PreWSS: input subspace size is                 19
   GDM::PreWSS: working subspace size set to           18
   GDM::PrEWSS: # of linearly dependent vectors =            0
   GDM::PrEWSS: Max dev from orthonormality =   5.099913547024215E-014
   GDM::BFGS:   lowest Hinv e-value    5.960781689034639E-002
   GDM::BFGS:   highest Hinv e-value    12.3317593730620     
   GDM::      : max scaling in EWCs is          2.82842712474619     
   GDM::      : max rotation in step is        0.256190132628287     
   GDM::        grad.step =  -0.209744400450339     
   ------- Leaving GDM -- hopefully with a step in the right direction! --------
 
   32    -866.2966966127      1.74E-01  Gap = -169.43 eV  Descent step
 
   ------------------- Entering Geometric Direct Minimization ------------------
   GDM::trust : actual energy change is       -9.971234487738911E-002
   GDM::trust : predicted energy change was   -0.342080643067069     
   GDM::trust : updated trust radius is        0.330000000000000     
   GDM:         diagonal hessian shift is      0.000000000000000E+000
   GDM::PreWSS: input subspace size is                 19
   GDM::PreWSS: working subspace size set to           18
   GDM::PrEWSS: # of linearly dependent vectors =            0
   GDM::PrEWSS: Max dev from orthonormality =   1.640007574188473E-013
   GDM::BFGS:   lowest Hinv e-value    7.749062603895666E-002
   GDM::BFGS:   highest Hinv e-value    8.64780066062319     
   GDM::      : max scaling in EWCs is          2.82842712474619     
   GDM::      : max rotation in step is       -0.624086000616302     
   GDM::        grad.step =  -0.492950171046505     
   ------- Leaving GDM -- hopefully with a step in the right direction! --------
 
   33    -866.3964089576      1.01E+00  Gap = -169.43 eV  Descent step
 
   ------------------- Entering Geometric Direct Minimization ------------------
   GDM::trust : actual energy change is        0.227947860312611     
   GDM::trust : predicted energy change was   -0.740084250386991     
   GDM::trust : updated trust radius is        0.108900000000000     
   GDM::search:  On step            1 .  The current bracket is:
       left   : x =  0.0000E+00, e =      -866.3964089576, g = -0.6495E+00
       current: x =  0.7590E+00, e =      -866.1684610973, g =  0.6372E+00
       right  : x =  0.1000E+04, e =      1000.0000000000, g =  0.1000E+04
       next   : x =  0.2595E+00
   GDM::      : max rotation in step is       -0.213375045685402     
   ------- Leaving GDM -- hopefully with a step in the right direction! --------
 
   34    -866.1684610973      2.43E-01  Gap = -169.43 eV  Line search: overstep
 
   ------------------- Entering Geometric Direct Minimization ------------------
   GDM::trust : actual energy change is       -0.174730313645114     
   GDM::trust : predicted energy change was   -0.740084250386991     
   GDM::trust : updated trust radius is        0.108900000000000     
   GDM:         diagonal hessian shift is      0.000000000000000E+000
   GDM::PreWSS: input subspace size is                 19
   GDM::PreWSS: working subspace size set to           18
   GDM::PrEWSS: # of linearly dependent vectors =            0
   GDM::PrEWSS: Max dev from orthonormality =   6.124267759588520E-014
   GDM::BFGS:   lowest Hinv e-value    6.979915498635066E-002
   GDM::BFGS:   highest Hinv e-value    13.1901321631143     
   GDM::      : max scaling in EWCs is          2.82842712474619     
   GDM::      : max rotation in step is        0.155662600665284     
   GDM::        grad.step =  -6.598295435653692E-002
   ------- Leaving GDM -- hopefully with a step in the right direction! --------
 
   35    -866.5711392712      3.06E-01  Gap = -169.43 eV  Descent step
 
   ------------------- Entering Geometric Direct Minimization ------------------
   GDM::trust : actual energy change is       -4.823024669667575E-002
   GDM::trust : predicted energy change was   -2.756019966048900E-002
   GDM::trust : updated trust radius is        0.330000000000000     
   GDM:         diagonal hessian shift is      0.000000000000000E+000
   GDM::PreWSS: input subspace size is                 19
   GDM::PreWSS: working subspace size set to           18
   GDM::PrEWSS: # of linearly dependent vectors =            0
   GDM::PrEWSS: Max dev from orthonormality =   2.995086817447756E-014
   GDM::BFGS:   lowest Hinv e-value    8.065090226731253E-002
   GDM::BFGS:   highest Hinv e-value    8.41525884907120     
   GDM::      : max scaling in EWCs is          2.82842712474619     
   GDM::      : max rotation in step is        0.369573479288088     
   GDM::        grad.step =  -0.170757430011391     
   ------- Leaving GDM -- hopefully with a step in the right direction! --------
 
   36    -866.6193695179      2.05E-01  Gap = -169.43 eV  Descent step
 
   ------------------- Entering Geometric Direct Minimization ------------------
   GDM::trust : actual energy change is        0.353912917548087     
   GDM::trust : predicted energy change was   -0.472472848404993     
   GDM::trust : updated trust radius is        0.108900000000000     
   GDM::search:  On step            1 .  The current bracket is:
       left   : x =  0.0000E+00, e =      -866.6193695179, g = -0.2414E+00
       current: x =  0.7073E+00, e =      -866.2654566004, g =  0.6421E+00
       right  : x =  0.1000E+04, e =      1000.0000000000, g =  0.1000E+04
       next   : x =  0.1151E+00
   GDM::      : max rotation in step is        6.014006491614033E-002
   ------- Leaving GDM -- hopefully with a step in the right direction! --------
 
   37    -866.2654566004      1.51E+00  Gap = -169.43 eV  Line search: overstep
 
   ------------------- Entering Geometric Direct Minimization ------------------
   GDM::trust : actual energy change is       -3.689330472332131E-002
   GDM::trust : predicted energy change was   -0.472472848404993     
   GDM::trust : updated trust radius is        0.108900000000000     
   GDM:         diagonal hessian shift is      0.000000000000000E+000
   GDM::PreWSS: input subspace size is                 19
   GDM::PreWSS: working subspace size set to           18
   GDM::PrEWSS: # of linearly dependent vectors =            0
   GDM::PrEWSS: Max dev from orthonormality =   8.854722510776014E-014
   GDM::BFGS:   lowest Hinv e-value    8.562064966022490E-002
   GDM::BFGS:   highest Hinv e-value    8.00541448261519     
   GDM::      : max scaling in EWCs is          2.82842712474619     
   GDM::      : max rotation in step is        0.103007391062043     
   GDM::        grad.step =  -3.507421463726197E-002
   ------- Leaving GDM -- hopefully with a step in the right direction! --------
 
   38    -866.6562628227      1.58E-01  Gap = -169.43 eV  Descent step
 
   ------------------- Entering Geometric Direct Minimization ------------------
   GDM::trust : actual energy change is       -6.052309842561954E-002
   GDM::trust : predicted energy change was   -1.749460147068371E-002
   GDM::trust : updated trust radius is        0.330000000000000     
   GDM:         diagonal hessian shift is      0.000000000000000E+000
   GDM::PreWSS: input subspace size is                 19
   GDM::PreWSS: working subspace size set to           18
   GDM::PrEWSS: # of linearly dependent vectors =            0
   GDM::PrEWSS: Max dev from orthonormality =   9.024031522031351E-014
   GDM::BFGS:   lowest Hinv e-value    8.591740119631380E-002
   GDM::BFGS:   highest Hinv e-value    7.11559805545728     
   GDM::      : max scaling in EWCs is          2.82842712474619     
   GDM::      : max rotation in step is        0.314969964838685     
   GDM::        grad.step =  -0.113616816314860     
   ------- Leaving GDM -- hopefully with a step in the right direction! --------
 
   39    -866.7167859211      2.13E-01  Gap = -169.43 eV  Descent step
 
   ------------------- Entering Geometric Direct Minimization ------------------
   GDM::trust : actual energy change is        4.619216399612469E-002
   GDM::trust : predicted energy change was   -0.301703014538672     
   GDM::trust : updated trust radius is        0.108900000000000     
   GDM::search:  On step            1 .  The current bracket is:
       left   : x =  0.0000E+00, e =      -866.7167859211, g = -0.1832E+00
       current: x =  0.6201E+00, e =      -866.6705937571, g =  0.2460E+00
       right  : x =  0.1000E+04, e =      1000.0000000000, g =  0.1000E+04
       next   : x =  0.2204E+00
   GDM::      : max rotation in step is        0.111964560971906     
   ------- Leaving GDM -- hopefully with a step in the right direction! --------
 
   40    -866.6705937571      4.03E-01  Gap = -169.43 eV  Line search: overstep
 
   ------------------- Entering Geometric Direct Minimization ------------------
   GDM::trust : actual energy change is       -4.662921790543351E-002
   GDM::trust : predicted energy change was   -0.301703014538672     
   GDM::trust : updated trust radius is        0.108900000000000     
   GDM:         diagonal hessian shift is      0.000000000000000E+000
   GDM::PreWSS: input subspace size is                 19
   GDM::PreWSS: working subspace size set to           18
   GDM::PrEWSS: # of linearly dependent vectors =            0
   GDM::PrEWSS: Max dev from orthonormality =   1.123372228573061E-013
   GDM::BFGS:   lowest Hinv e-value    7.118169594442028E-002
   GDM::BFGS:   highest Hinv e-value    6.81008216731984     
   GDM::      : max scaling in EWCs is          2.82842712474619     
   GDM::      : max rotation in step is       -0.116678465468410     
   GDM::        grad.step =  -6.159563538381813E-002
   ------- Leaving GDM -- hopefully with a step in the right direction! --------
 
   41    -866.7634151390      2.79E-01  Gap = -169.43 eV  Descent step
 
   ------------------- Entering Geometric Direct Minimization ------------------
   GDM::trust : actual energy change is       -3.763431735740141E-002
   GDM::trust : predicted energy change was   -6.802307878038792E-002
   GDM::trust : updated trust radius is        0.330000000000000     
   GDM:         diagonal hessian shift is      0.000000000000000E+000
   GDM::PreWSS: input subspace size is                 19
   GDM::PreWSS: working subspace size set to           18
   GDM::PrEWSS: # of linearly dependent vectors =            0
   GDM::PrEWSS: Max dev from orthonormality =   1.543001837411850E-013
   GDM::BFGS:   lowest Hinv e-value    9.282195372805739E-002
   GDM::BFGS:   highest Hinv e-value    8.07292895322212     
   GDM::      : max scaling in EWCs is          2.82842712474619     
   GDM::      : max rotation in step is       -0.328936019635931     
   GDM::        grad.step =  -0.218171117978922     
   ------- Leaving GDM -- hopefully with a step in the right direction! --------
 
   42    -866.8010494564      4.01E-01  Gap = -169.43 eV  Descent step
 
   ------------------- Entering Geometric Direct Minimization ------------------
   GDM::trust : actual energy change is        0.195333602504547     
   GDM::trust : predicted energy change was   -0.501080609934527     
   GDM::trust : updated trust radius is        0.108900000000000     
   GDM::search:  On step            1 .  The current bracket is:
       left   : x =  0.0000E+00, e =      -866.8010494564, g = -0.3488E+00
       current: x =  0.6254E+00, e =      -866.6057158539, g =  0.5837E+00
       right  : x =  0.1000E+04, e =      1000.0000000000, g =  0.1000E+04
       next   : x =  0.1650E+00
   GDM::      : max rotation in step is       -8.677571934801735E-002
   ------- Leaving GDM -- hopefully with a step in the right direction! --------
 
   43    -866.6057158539      2.00E+00  Gap = -169.43 eV  Line search: overstep
 
   ------------------- Entering Geometric Direct Minimization ------------------
   GDM::trust : actual energy change is       -6.940011386018341E-002
   GDM::trust : predicted energy change was   -0.501080609934527     
   GDM::trust : updated trust radius is        0.108900000000000     
   GDM:         diagonal hessian shift is      0.000000000000000E+000
   GDM::PreWSS: input subspace size is                 19
   GDM::PreWSS: working subspace size set to           18
   GDM::PrEWSS: # of linearly dependent vectors =            0
   GDM::PrEWSS: Max dev from orthonormality =   3.880298860003961E-013
   GDM::BFGS:   lowest Hinv e-value    9.381954930002387E-002
   GDM::BFGS:   highest Hinv e-value    9.39072754965579     
   GDM::      : max scaling in EWCs is          2.82842712474619     
   GDM::      : max rotation in step is       -0.203714067483683     
   GDM::        grad.step =  -6.007341122866658E-002
   ------- Leaving GDM -- hopefully with a step in the right direction! --------
 
   44    -866.8704495702      4.93E-01  Gap = -169.43 eV  Descent step
 
   ------------------- Entering Geometric Direct Minimization ------------------
   GDM::trust : actual energy change is       -0.115174959908813     
   GDM::trust : predicted energy change was   -2.055037662269500E-002
   GDM::trust : updated trust radius is        0.330000000000000     
   GDM:         diagonal hessian shift is      0.000000000000000E+000
   GDM::PreWSS: input subspace size is                 19
   GDM::PreWSS: working subspace size set to           18
   GDM::PrEWSS: # of linearly dependent vectors =            0
   GDM::PrEWSS: Max dev from orthonormality =   3.533492942686678E-013
   GDM::BFGS:   lowest Hinv e-value    5.422065612193401E-002
   GDM::BFGS:   highest Hinv e-value    18.5453845143462     
   GDM::      : max scaling in EWCs is          2.82842712474619     
   GDM::      : max rotation in step is       -0.876039535844005     
   GDM::        grad.step =  -0.242865026879529     
   ------- Leaving GDM -- hopefully with a step in the right direction! --------
 
   45    -866.9856245301      6.91E-01  Gap = -169.43 eV  Descent step
 
   ------------------- Entering Geometric Direct Minimization ------------------
   GDM::trust : actual energy change is       -0.282046482950363     
   GDM::trust : predicted energy change was   -0.254487936002318     
   GDM::trust : updated trust radius is        0.330000000000000     
   GDM:         diagonal hessian shift is      0.000000000000000E+000
   GDM::PreWSS: input subspace size is                 19
   GDM::PreWSS: working subspace size set to           18
   GDM::PrEWSS: # of linearly dependent vectors =            0
   GDM::PrEWSS: Max dev from orthonormality =   1.946984240497329E-013
   GDM::BFGS:   lowest Hinv e-value    0.110329069955150     
   GDM::BFGS:   highest Hinv e-value    11.3866780512177     
   GDM::      : max scaling in EWCs is          2.82842712474619     
   GDM::      : max rotation in step is       -0.494639420052164     
   GDM::        grad.step =  -0.175905028713423     
   ------- Leaving GDM -- hopefully with a step in the right direction! --------
 
   46    -867.2676710131      2.90E-01  Gap = -169.43 eV  Descent step
 
   ------------------- Entering Geometric Direct Minimization ------------------
   GDM::trust : actual energy change is        0.293024552319253     
   GDM::trust : predicted energy change was   -0.268784955519637     
   GDM::trust : updated trust radius is        0.108900000000000     
   GDM::search:  On step            1 .  The current bracket is:
       left   : x =  0.0000E+00, e =      -867.2676710131, g = -0.2587E+00
       current: x =  0.6801E+00, e =      -866.9746464608, g =  0.4737E+00
       right  : x =  0.1000E+04, e =      1000.0000000000, g =  0.1000E+04
       next   : x =  0.1276E+00
   GDM::      : max rotation in step is       -9.277465626657047E-002
   ------- Leaving GDM -- hopefully with a step in the right direction! --------
 
   47    -866.9746464608      2.28E-01  Gap = -169.43 eV  Line search: overstep
 
   ------------------- Entering Geometric Direct Minimization ------------------
   GDM::trust : actual energy change is       -3.875761314805004E-002
   GDM::trust : predicted energy change was   -0.268784955519637     
   GDM::trust : updated trust radius is        0.108900000000000     
   GDM:         diagonal hessian shift is      0.000000000000000E+000
   GDM::PreWSS: input subspace size is                 19
   GDM::PreWSS: working subspace size set to           18
   GDM::PrEWSS: # of linearly dependent vectors =            0
   GDM::PrEWSS: Max dev from orthonormality =   5.129716096341497E-013
   GDM::BFGS:   lowest Hinv e-value    0.107123928705381     
   GDM::BFGS:   highest Hinv e-value    10.8032462547547     
   GDM::      : max scaling in EWCs is          2.82842712474619     
   GDM::      : max rotation in step is       -8.619435108258781E-002
   GDM::        grad.step =  -1.925487297751398E-002
   ------- Leaving GDM -- hopefully with a step in the right direction! --------
 
   48    -867.3064286262      4.95E-02  Gap = -169.43 eV  Descent step
 
   ------------------- Entering Geometric Direct Minimization ------------------
   GDM::trust : actual energy change is       -8.028202392665662E-003
   GDM::trust : predicted energy change was   -2.161835026286874E-002
   GDM::trust : updated trust radius is        0.330000000000000     
   GDM:         diagonal hessian shift is      0.000000000000000E+000
   GDM::PreWSS: input subspace size is                 19
   GDM::PreWSS: working subspace size set to           18
   GDM::PrEWSS: # of linearly dependent vectors =            0
   GDM::PrEWSS: Max dev from orthonormality =   3.780795121421932E-013
   GDM::BFGS:   lowest Hinv e-value    0.113192747982898     
   GDM::BFGS:   highest Hinv e-value    10.8965241185276     
   GDM::      : max scaling in EWCs is          2.82842712474619     
   GDM::      : max rotation in step is       -0.126922963308114     
   GDM::        grad.step =  -1.070172166429940E-002
   ------- Leaving GDM -- hopefully with a step in the right direction! --------
 
   49    -867.3144568286      5.80E-02  Gap = -169.43 eV  Normal BFGS step
 
   ------------------- Entering Geometric Direct Minimization ------------------
   GDM::trust : actual energy change is        1.210934809296305E-002
   GDM::trust : predicted energy change was   -1.605258249644909E-002
   GDM::trust : updated trust radius is        0.108900000000000     
   GDM::search:  On step            1 .  The current bracket is:
       left   : x =  0.0000E+00, e =      -867.3144568286, g = -0.4514E-01
       current: x =  0.2371E+00, e =      -867.3023474805, g =  0.9709E-01
       right  : x =  0.1000E+04, e =      1000.0000000000, g =  0.1000E+04
       next   : x =  0.5561E-01
   GDM::      : max rotation in step is       -2.977269896996119E-002
   ------- Leaving GDM -- hopefully with a step in the right direction! --------
 
   50    -867.3023474805      1.22E-01  Gap = -169.43 eV  Line search: overstep
 
   ------------------- Entering Geometric Direct Minimization ------------------
   GDM::trust : actual energy change is       -3.197201638158731E-003
   GDM::trust : predicted energy change was   -1.605258249644909E-002
   GDM::trust : updated trust radius is        0.108900000000000     
   GDM:         diagonal hessian shift is      0.000000000000000E+000
   GDM::PreWSS: input subspace size is                 19
   GDM::PreWSS: working subspace size set to           18
   GDM::PrEWSS: # of linearly dependent vectors =            0
   GDM::PrEWSS: Max dev from orthonormality =   2.024838630099168E-013
   GDM::BFGS:   lowest Hinv e-value    0.106306465987951     
   GDM::BFGS:   highest Hinv e-value    5.77651261172349     
   GDM::      : max scaling in EWCs is          2.82842712474619     
   GDM::      : max rotation in step is       -8.740019721498647E-002
   GDM::        grad.step =  -1.350553788673334E-002
   ------- Leaving GDM -- hopefully with a step in the right direction! --------
 
   51    -867.3176540303      4.37E-02  Gap = -169.43 eV  Descent step
 
   ------------------- Entering Geometric Direct Minimization ------------------
   GDM::trust : actual energy change is        1.391111562475089E-002
   GDM::trust : predicted energy change was   -2.667153300574085E-002
   GDM::trust : updated trust radius is        0.108900000000000     
   GDM::search:  On step            1 .  The current bracket is:
       left   : x =  0.0000E+00, e =      -867.3176540303, g = -0.7750E-01
       current: x =  0.1743E+00, e =      -867.3037429146, g =  0.1582E+00
       right  : x =  0.1000E+04, e =      1000.0000000000, g =  0.1000E+04
       next   : x =  0.4292E-01
   GDM::      : max rotation in step is       -2.152681898796525E-002
   ------- Leaving GDM -- hopefully with a step in the right direction! --------
 
   52    -867.3037429146      3.02E-01  Gap = -169.43 eV  Line search: overstep
 
   ------------------- Entering Geometric Direct Minimization ------------------
   GDM::trust : actual energy change is       -4.198574153747359E-003
   GDM::trust : predicted energy change was   -2.667153300574085E-002
   GDM::trust : updated trust radius is        0.108900000000000     
   GDM:         diagonal hessian shift is      0.000000000000000E+000
   GDM::PreWSS: input subspace size is                 19
   GDM::PreWSS: working subspace size set to           18
   GDM::PrEWSS: # of linearly dependent vectors =            0
   GDM::PrEWSS: Max dev from orthonormality =   4.902502015458055E-013
   GDM::BFGS:   lowest Hinv e-value    0.106209534642571     
   GDM::BFGS:   highest Hinv e-value    5.70243782361823     
   GDM::      : max scaling in EWCs is          2.82842712474619     
   GDM::      : max rotation in step is       -0.136359194483902     
   GDM::        grad.step =  -5.020109075528009E-003
   ------- Leaving GDM -- hopefully with a step in the right direction! --------
 
   53    -867.3218526044      2.96E-02  Gap = -169.43 eV  Normal BFGS step
 
   ------------------- Entering Geometric Direct Minimization ------------------
   GDM::trust : actual energy change is        1.084668933231114E-003
   GDM::trust : predicted energy change was   -7.530163613292017E-003
   GDM::trust : updated trust radius is        0.108900000000000     
   GDM::search:  On step            1 .  The current bracket is:
       left   : x =  0.0000E+00, e =      -867.3218526044, g = -0.2755E-01
       current: x =  0.1822E+00, e =      -867.3207679355, g =  0.3386E-01
       right  : x =  0.1000E+04, e =      1000.0000000000, g =  0.1000E+04
       next   : x =  0.7491E-01
   GDM::      : max rotation in step is       -5.606575937553766E-002
   ------- Leaving GDM -- hopefully with a step in the right direction! --------
 
   54    -867.3207679355      8.89E-02  Gap = -169.43 eV  Line search: overstep
 
   ------------------- Entering Geometric Direct Minimization ------------------
   GDM::trust : actual energy change is       -2.262961261862984E-003
   GDM::trust : predicted energy change was   -7.530163613292017E-003
   GDM::trust : updated trust radius is        0.108900000000000     
   GDM:         diagonal hessian shift is      0.000000000000000E+000
   GDM::PreWSS: input subspace size is                 19
   GDM::PreWSS: working subspace size set to           18
   GDM::PrEWSS: # of linearly dependent vectors =            0
   GDM::PrEWSS: Max dev from orthonormality =   1.556451148521099E-012
   GDM::BFGS:   lowest Hinv e-value    0.107862154605306     
   GDM::BFGS:   highest Hinv e-value    5.32958731439218     
   GDM::      : max scaling in EWCs is          2.82842712474619     
   GDM::      : max rotation in step is       -0.161481137293787     
   GDM::        grad.step =  -3.467895137744195E-003
   ------- Leaving GDM -- hopefully with a step in the right direction! --------
 
   55    -867.3241155657      2.47E-02  Gap = -169.43 eV  Normal BFGS step
 
   ------------------- Entering Geometric Direct Minimization ------------------
   GDM::trust : actual energy change is        8.825100458125235E-004
   GDM::trust : predicted energy change was   -5.201842706616291E-003
   GDM::trust : updated trust radius is        0.108900000000000     
   GDM::search:  On step            1 .  The current bracket is:
       left   : x =  0.0000E+00, e =      -867.3241155657, g = -0.1646E-01
       current: x =  0.2107E+00, e =      -867.3232330556, g =  0.2137E-01
       right  : x =  0.1000E+04, e =      1000.0000000000, g =  0.1000E+04
       next   : x =  0.8396E-01
   GDM::      : max rotation in step is       -6.436178094113656E-002
   ------- Leaving GDM -- hopefully with a step in the right direction! --------
 
   56    -867.3232330556      9.97E-02  Gap = -169.43 eV  Line search: overstep
 
   ------------------- Entering Geometric Direct Minimization ------------------
   GDM::trust : actual energy change is       -1.551601090568511E-003
   GDM::trust : predicted energy change was   -5.201842706616291E-003
   GDM::trust : updated trust radius is        0.108900000000000     
   GDM:         diagonal hessian shift is      0.000000000000000E+000
   GDM::PreWSS: input subspace size is                 19
   GDM::PreWSS: working subspace size set to           18
   GDM::PrEWSS: # of linearly dependent vectors =            0
   GDM::PrEWSS: Max dev from orthonormality =   1.118882764217233E-012
   GDM::BFGS:   lowest Hinv e-value    0.107055620515406     
   GDM::BFGS:   highest Hinv e-value    6.02370319650801     
   GDM::trust : dogleg step length is          0.108900000000000     
   GDM::      : max scaling in EWCs is          2.82842712474619     
   GDM::      : max rotation in step is       -0.162502850150109     
   GDM::        grad.step =  -3.779441549162970E-003
   ------- Leaving GDM -- hopefully with a step in the right direction! --------
 
   57    -867.3256671668      2.57E-02  Gap = -169.43 eV  Dog-leg BFGS step
 
   ------------------- Entering Geometric Direct Minimization ------------------
   GDM::trust : actual energy change is        4.366895955058681E-003
   GDM::trust : predicted energy change was   -5.731717430315333E-003
   GDM::trust : updated trust radius is        3.593700000000000E-002
   GDM::search:  On step            1 .  The current bracket is:
       left   : x =  0.0000E+00, e =      -867.3256671668, g = -0.1409E-01
       current: x =  0.2682E+00, e =      -867.3213002708, g =  0.3125E-01
       right  : x =  0.1000E+04, e =      1000.0000000000, g =  0.1000E+04
       next   : x =  0.6222E-01
   GDM::      : max rotation in step is       -3.769608265042087E-002
   ------- Leaving GDM -- hopefully with a step in the right direction! --------
 
   58    -867.3213002708      1.73E-01  Gap = -169.43 eV  Line search: overstep
 
   ------------------- Entering Geometric Direct Minimization ------------------
   GDM::trust : actual energy change is       -1.134466579514992E-003
   GDM::trust : predicted energy change was   -5.731717430315333E-003
   GDM::trust : updated trust radius is        3.593700000000000E-002
   GDM:         diagonal hessian shift is      0.000000000000000E+000
   GDM::PreWSS: input subspace size is                 19
   GDM::PreWSS: working subspace size set to           18
   GDM::PrEWSS: # of linearly dependent vectors =            0
   GDM::PrEWSS: Max dev from orthonormality =   7.882652863777651E-013
   GDM::BFGS:   lowest Hinv e-value    0.106270748621962     
   GDM::BFGS:   highest Hinv e-value    5.59427771199916     
   GDM::      : max scaling in EWCs is          2.82842712474619     
   GDM::      : max rotation in step is       -3.551472105165485E-002
   GDM::        grad.step =  -1.384886478840025E-003
   ------- Leaving GDM -- hopefully with a step in the right direction! --------
 
   59    -867.3268016333      1.35E-02  Gap = -169.43 eV  Descent step
 
   ------------------- Entering Geometric Direct Minimization ------------------
   GDM::trust : actual energy change is        7.197116545967219E-004
   GDM::trust : predicted energy change was   -3.266802528912976E-003
   GDM::trust : updated trust radius is        0.108900000000000     
   GDM::search:  On step            1 .  The current bracket is:
       left   : x =  0.0000E+00, e =      -867.3268016333, g = -0.2087E-01
       current: x =  0.6637E-01, e =      -867.3260819217, g =  0.3181E-01
       right  : x =  0.1000E+04, e =      1000.0000000000, g =  0.1000E+04
       next   : x =  0.2184E-01
   GDM::      : max rotation in step is       -1.168485712374367E-002
   ------- Leaving GDM -- hopefully with a step in the right direction! --------
 
   60    -867.3260819217      6.53E-02  Gap = -169.43 eV  Line search: overstep
 
   ------------------- Entering Geometric Direct Minimization ------------------
   GDM::trust : actual energy change is       -5.347592559701297E-004
   GDM::trust : predicted energy change was   -3.266802528912976E-003
   GDM::trust : updated trust radius is        0.108900000000000     
   GDM:         diagonal hessian shift is      0.000000000000000E+000
   GDM::PreWSS: input subspace size is                 19
   GDM::PreWSS: working subspace size set to           18
   GDM::PrEWSS: # of linearly dependent vectors =            0
   GDM::PrEWSS: Max dev from orthonormality =   2.751243677323600E-012
   GDM::BFGS:   lowest Hinv e-value    0.112782650774739     
   GDM::BFGS:   highest Hinv e-value    5.42390526752850     
   GDM::      : max scaling in EWCs is          2.82842712474619     
   GDM::      : max rotation in step is       -0.169889866658722     
   GDM::        grad.step =  -2.113797967969841E-003
   ------- Leaving GDM -- hopefully with a step in the right direction! --------
 
   61    -867.3273363926      1.81E-02  Gap = -169.43 eV  Normal BFGS step
 
   ------------------- Entering Geometric Direct Minimization ------------------
   GDM::trust : actual energy change is        3.785274312804177E-004
   GDM::trust : predicted energy change was   -3.170696951954760E-003
   GDM::trust : updated trust radius is        0.108900000000000     
   GDM::search:  On step            1 .  The current bracket is:
       left   : x =  0.0000E+00, e =      -867.3273363926, g = -0.8583E-02
       current: x =  0.2463E+00, e =      -867.3269578652, g =  0.1105E-01
       right  : x =  0.1000E+04, e =      1000.0000000000, g =  0.1000E+04
       next   : x =  0.1044E+00
   GDM::      : max rotation in step is       -7.204373374156954E-002
   ------- Leaving GDM -- hopefully with a step in the right direction! --------
 
   62    -867.3269578652      3.05E-02  Gap = -169.43 eV  Line search: overstep
 
   ------------------- Entering Geometric Direct Minimization ------------------
   GDM::trust : actual energy change is       -1.012285016827263E-003
   GDM::trust : predicted energy change was   -3.170696951954760E-003
   GDM::trust : updated trust radius is        0.108900000000000     
   GDM:         diagonal hessian shift is      0.000000000000000E+000
   GDM::PreWSS: input subspace size is                 19
   GDM::PreWSS: working subspace size set to           18
   GDM::PrEWSS: # of linearly dependent vectors =            0
   GDM::PrEWSS: Max dev from orthonormality =   3.248751961892893E-012
   GDM::BFGS:   lowest Hinv e-value    0.116969088316669     
   GDM::BFGS:   highest Hinv e-value    8.09121434669633     
   GDM::trust : dogleg step length is          0.108900000000000     
   GDM::      : max scaling in EWCs is          2.82842712474619     
   GDM::      : max rotation in step is       -0.201124552553802     
   GDM::        grad.step =  -2.280618914711516E-003
   ------- Leaving GDM -- hopefully with a step in the right direction! --------
 
   63    -867.3283486776      1.62E-02  Gap = -169.43 eV  Dog-leg BFGS step
 
   ------------------- Entering Geometric Direct Minimization ------------------
   GDM::trust : actual energy change is       -1.343503884072561E-004
   GDM::trust : predicted energy change was   -3.474050492917803E-003
   GDM::trust : updated trust radius is        0.108900000000000     
   GDM:         diagonal hessian shift is      0.000000000000000E+000
   GDM::PreWSS: input subspace size is                 19
   GDM::PreWSS: working subspace size set to           18
   GDM::PrEWSS: # of linearly dependent vectors =            0
   GDM::PrEWSS: Max dev from orthonormality =   3.886765909122403E-012
   GDM::BFGS:   lowest Hinv e-value    0.121230104617038     
   GDM::BFGS:   highest Hinv e-value    6.53562874828555     
   GDM::      : max scaling in EWCs is          2.82842712474619     
   GDM::      : max rotation in step is        5.089323677973381E-002
   GDM::        grad.step =  -1.971948389663856E-003
   ------- Leaving GDM -- hopefully with a step in the right direction! --------
 
   64    -867.3284830280      2.42E-02  Gap = -169.43 eV  Normal BFGS step
 
   ------------------- Entering Geometric Direct Minimization ------------------
   GDM::trust : actual energy change is       -2.072668676078138E-003
   GDM::trust : predicted energy change was   -2.957922584495784E-003
   GDM::trust : updated trust radius is        0.330000000000000     
   GDM:         diagonal hessian shift is      0.000000000000000E+000
   GDM::PreWSS: input subspace size is                 19
   GDM::PreWSS: working subspace size set to           18
   GDM::PrEWSS: # of linearly dependent vectors =            0
   GDM::PrEWSS: Max dev from orthonormality =   2.277705801745356E-012
   GDM::BFGS:   lowest Hinv e-value    0.126947732143123     
   GDM::BFGS:   highest Hinv e-value    6.99023132568990     
   GDM::      : max scaling in EWCs is          2.82842712474619     
   GDM::      : max rotation in step is        8.180030730210729E-002
   GDM::        grad.step =  -9.294353638448071E-004
   ------- Leaving GDM -- hopefully with a step in the right direction! --------
 
   65    -867.3305556967      1.65E-02  Gap = -169.43 eV  Normal BFGS step
 
   ------------------- Entering Geometric Direct Minimization ------------------
   GDM::trust : actual energy change is       -5.640458474545085E-004
   GDM::trust : predicted energy change was   -1.394153045767211E-003
   GDM::trust : updated trust radius is        0.330000000000000     
   GDM:         diagonal hessian shift is      0.000000000000000E+000
   GDM::PreWSS: input subspace size is                 19
   GDM::PreWSS: working subspace size set to           18
   GDM::PrEWSS: # of linearly dependent vectors =            0
   GDM::PrEWSS: Max dev from orthonormality =   5.593962792982410E-012
   GDM::BFGS:   lowest Hinv e-value    0.120401268694526     
   GDM::BFGS:   highest Hinv e-value    6.10474625496336     
   GDM::      : max scaling in EWCs is          2.82842712474619     
   GDM::      : max rotation in step is        6.282761079467494E-002
   GDM::        grad.step =  -5.307518237116604E-004
   ------- Leaving GDM -- hopefully with a step in the right direction! --------
 
   66    -867.3311197425      1.20E-02  Gap = -699.79 eV  Normal BFGS step
 
   ------------------- Entering Geometric Direct Minimization ------------------
   GDM::trust : actual energy change is       -4.650356194133565E-004
   GDM::trust : predicted energy change was   -7.961277355674903E-004
   GDM::trust : updated trust radius is        0.330000000000000     
   GDM:         diagonal hessian shift is      0.000000000000000E+000
   GDM::PreWSS: input subspace size is                 19
   GDM::PreWSS: working subspace size set to           18
   GDM::PrEWSS: # of linearly dependent vectors =            0
   GDM::PrEWSS: Max dev from orthonormality =   2.153589806486167E-012
   GDM::BFGS:   lowest Hinv e-value    0.120847098748879     
   GDM::BFGS:   highest Hinv e-value    5.01516198501141     
   GDM::      : max scaling in EWCs is          2.82842712474619     
   GDM::      : max rotation in step is       -3.146745578250192E-002
   GDM::        grad.step =  -5.000646563709864E-004
   ------- Leaving GDM -- hopefully with a step in the right direction! --------
 
   67    -867.3315847781      2.00E-02  Gap = -699.79 eV  Normal BFGS step
 
   ------------------- Entering Geometric Direct Minimization ------------------
   GDM::trust : actual energy change is        8.710735033901074E-004
   GDM::trust : predicted energy change was   -7.500969845564794E-004
   GDM::trust : updated trust radius is        0.108900000000000     
   GDM::search:  On step            1 .  The current bracket is:
       left   : x =  0.0000E+00, e =      -867.3315847781, g = -0.1016E-01
       current: x =  0.4924E-01, e =      -867.3307137046, g =  0.2808E-01
       right  : x =  0.1000E+04, e =      1000.0000000000, g =  0.1000E+04
[...]
   GDM::PreWSS: input subspace size is                 15
   GDM::PreWSS: working subspace size set to           15
   GDM::PrEWSS: # of linearly dependent vectors =           14
   GDM::PrEWSS: Max dev from orthonormality =   1.623701173514291E-014
   GDM::BFGS:   lowest Hinv e-value    9.293476059732492E-002
   GDM::BFGS:   highest Hinv e-value    2.39034821556989     
   GDM::      : max scaling in EWCs is          2.82842712474619     
   GDM::      : max rotation in step is        7.833316207195927E-007
   GDM::        grad.step =  -1.559733984884269E-011
   ------- Leaving GDM -- hopefully with a step in the right direction! --------
 
   19    -867.6241784701      1.75E-06  Gap = 0.00 eV  Normal BFGS step
 
   ------------------- Entering Geometric Direct Minimization ------------------
   GDM::trust : actual energy change is       -2.125943865394220E-011
   GDM::trust : predicted energy change was   -2.339600977326403E-011
   GDM::trust : updated trust radius is        0.330000000000000     
   GDM:         diagonal hessian shift is      0.000000000000000E+000
   GDM::PreWSS: input subspace size is                 16
   GDM::PreWSS: working subspace size set to           16
   GDM::PrEWSS: # of linearly dependent vectors =           15
   GDM::PrEWSS: Max dev from orthonormality =   1.101896351940468E-014
   GDM::BFGS:   lowest Hinv e-value    9.293430926229782E-002
   GDM::BFGS:   highest Hinv e-value    2.39276349968978     
   GDM::      : max scaling in EWCs is          2.82842712474619     
   GDM::      : max rotation in step is        1.352259482232363E-006
   GDM::        grad.step =  -3.995961861114461E-013
   ------- Leaving GDM -- hopefully with a step in the right direction! --------
 
   20    -867.6241784701      3.91E-07  Gap = 0.00 eV  Normal BFGS step
 
   ------------------- Entering Geometric Direct Minimization ------------------
   GDM::trust : actual energy change is        1.364242052659392E-012
   GDM::trust : predicted energy change was   -5.993942791671693E-013
   GDM::trust : updated trust radius is        0.108900000000000     
   GDM::WARNING energy changes are now smaller than effective accuracy.
   GDM::        calculation will continue, but THRESH should be increased
   GDM::        or SCF_CONVERGENCE decreased.
   GDM::        effective_thresh =   4.000000000000000E-010
   GDM:         diagonal hessian shift is      0.000000000000000E+000
   GDM::PreWSS: input subspace size is                 17
   GDM::PreWSS: working subspace size set to           17
   GDM::PrEWSS: # of linearly dependent vectors =           16
   GDM::PrEWSS: Max dev from orthonormality =   3.554934124849751E-013
   GDM::BFGS:   lowest Hinv e-value    9.292276179821271E-002
   GDM::BFGS:   highest Hinv e-value    2.99285511677681     
   GDM::      : max scaling in EWCs is          2.82842712474619     
   GDM::      : max rotation in step is        1.608427875014777E-006
   GDM::        grad.step =  -2.018887214334240E-013
   ------- Leaving GDM -- hopefully with a step in the right direction! --------
 
   21    -867.6241784701      2.54E-07  Gap = 0.00 eV  Normal BFGS step
 
   ------------------- Entering Geometric Direct Minimization ------------------
   GDM::trust : actual energy change is        9.094947017729282E-013
   GDM::trust : predicted energy change was   -3.028330821501361E-013
   GDM::trust : updated trust radius is        0.108900000000000     
   GDM::WARNING energy changes are now smaller than effective accuracy.
   GDM::        calculation will continue, but THRESH should be increased
   GDM::        or SCF_CONVERGENCE decreased.
   GDM::        effective_thresh =   4.000000000000000E-010
   GDM:         diagonal hessian shift is      0.000000000000000E+000
   GDM::PreWSS: input subspace size is                 18
   GDM::PreWSS: working subspace size set to           18
   GDM::PrEWSS: # of linearly dependent vectors =           17
   GDM::PrEWSS: Max dev from orthonormality =   7.924355616140133E-013
   GDM::BFGS:   lowest Hinv e-value    9.293149242270812E-002
   GDM::BFGS:   highest Hinv e-value    3.30986047180114     
   GDM::      : max scaling in EWCs is          2.82842712474619     
   GDM::      : max rotation in step is        6.104813182531183E-007
   GDM::        grad.step =  -2.840767922729208E-014
   ------- Leaving GDM -- hopefully with a step in the right direction! --------
 
   22    -867.6241784701      8.62E-08  Gap = 0.00 eV  Normal BFGS step
 
   ------------------- Entering Geometric Direct Minimization ------------------
   GDM::trust : actual energy change is        0.000000000000000E+000
   GDM::trust : predicted energy change was   -4.261151884093812E-014
   GDM::trust : updated trust radius is        0.330000000000000     
   GDM:         diagonal hessian shift is      0.000000000000000E+000
   GDM::PreWSS: input subspace size is                 19
   GDM::PreWSS: working subspace size set to           18
   GDM::PrEWSS: # of linearly dependent vectors =           16
   GDM::PrEWSS: Max dev from orthonormality =   1.337416288826887E-012
   GDM::BFGS:   lowest Hinv e-value    9.293327383137527E-002
   GDM::BFGS:   highest Hinv e-value    3.44415855769829     
   GDM::      : max scaling in EWCs is          2.82842712474619     
   GDM::      : max rotation in step is        2.004531258541478E-007
   GDM::        grad.step =  -6.300015356148634E-015
   ------- Leaving GDM -- hopefully with a step in the right direction! --------
 
   23    -867.6241784701      3.23E-08  Gap = 0.00 eV  Normal BFGS step
 
   ------------------- Entering Geometric Direct Minimization ------------------
   GDM::trust : actual energy change is       -4.547473508864641E-013
   GDM::trust : predicted energy change was   -9.450023034222947E-015
   GDM::trust : updated trust radius is        0.330000000000000     
   GDM:         diagonal hessian shift is      0.000000000000000E+000
   GDM::PreWSS: input subspace size is                 19
   GDM::PreWSS: working subspace size set to           18
   GDM::PrEWSS: # of linearly dependent vectors =           15
   GDM::PrEWSS: Max dev from orthonormality =   8.009634622219153E-013
   GDM::BFGS:   lowest Hinv e-value    9.319266836558281E-002
   GDM::BFGS:   highest Hinv e-value    3.60906119054271     
   GDM::      : max scaling in EWCs is          2.82842712474619     
   GDM::      : max rotation in step is       -5.949352342501695E-008
   GDM::        grad.step =  -1.006504679495561E-015
   ------- Leaving GDM -- hopefully with a step in the right direction! --------
 
   24    -867.6241784701      1.27E-08  Gap = 0.00 eV  Normal BFGS step
 
   ------------------- Entering Geometric Direct Minimization ------------------
   GDM::trust : actual energy change is        1.023181539494544E-012
   GDM::trust : predicted energy change was   -1.509757019243342E-015
   GDM::trust : updated trust radius is        0.108900000000000     
   GDM::WARNING energy changes are now smaller than effective accuracy.
   GDM::        calculation will continue, but THRESH should be increased
   GDM::        or SCF_CONVERGENCE decreased.
   GDM::        effective_thresh =   4.000000000000000E-010
   GDM:         diagonal hessian shift is      0.000000000000000E+000
   GDM::PreWSS: input subspace size is                 19
   GDM::PreWSS: working subspace size set to           18
   GDM::PrEWSS: # of linearly dependent vectors =           14
   GDM::PrEWSS: Max dev from orthonormality =   1.149656758681061E-012
   GDM::BFGS:   lowest Hinv e-value    9.352657428717226E-002
   GDM::BFGS:   highest Hinv e-value    3.63752502548169     
   GDM::      : max scaling in EWCs is          2.82842712474619     
   GDM::      : max rotation in step is       -1.500782141759634E-008
   GDM::        grad.step =  -8.650148024354188E-017
   ------- Leaving GDM -- hopefully with a step in the right direction! --------
 
   25    -867.6241784701      3.52E-09 Convergence criterion met
 ---------------------------------------
 One-Electron    Energy = -2182.5680132084
 Total Coulomb   Energy =   914.0824193004
 Alpha Exchange  Energy =    -7.6415147547
 Beta  Exchange  Energy =    -7.6415147547
 DFT   Exchange  Energy =   -61.2570400448
 DFT Correlation Energy =    -3.6823161855
 Nuclear Repu.   Energy =   481.0838011776
 Nuclear Attr.   Energy = -3000.5697477641
 Kinetic         Energy =   818.0017345557
 SCF time:  CPU 178.52 s  wall 15.84 s
 SCF   energy in the final basis set = -867.6241784701
 Total energy in the final basis set = -867.6241784701
 
 --------------------------------------------------------------
 
                    Orbital Energies (a.u.)
 --------------------------------------------------------------
 
 Alpha MOs
 -- Occupied --
-88.986 -19.255 -19.181 -19.180 -19.155 -19.155  -8.054  -6.019
 -6.014  -6.008  -2.112  -2.051  -1.333  -1.322  -1.314  -1.271
 -1.258  -1.251  -1.075  -0.926  -0.923  -0.877  -0.860  -0.720
 -0.485  -0.474  -0.460  -0.419  -0.402  -0.393  -0.379  -0.372
 -0.359  -0.342  -0.331  -0.324  -0.310  -0.304  -0.303  -0.269
 -- Virtual --
 -0.252  -0.148  -0.094  -0.084  -0.074  -0.056  -0.038  -0.036
 -0.026  -0.005   0.002   0.009   0.011   0.015   0.037   0.041
  0.043   0.048   0.052   0.062   0.067   0.075   0.086   0.106
  0.117   0.138   0.140   0.143   0.160   0.179   0.179   0.198
  0.202   0.206   0.215   0.226   0.227   0.231   0.232   0.249
  0.254   0.261   0.268   0.281   0.283   0.291   0.297   0.306
  0.327   0.342   0.357   0.386   0.389   0.409   0.445   0.469
  0.481   0.493   0.499   0.588   0.655   0.700   0.727   0.732
  0.795   0.808   0.860   0.944   0.992   1.112   1.136   1.144
  1.166   1.182   1.186   1.189   1.212   1.219   1.231   1.251
  1.261   1.268   1.273   1.334   1.630   1.689   1.694   1.715
  1.717   1.742   1.752   1.759   1.765   1.770   1.781   1.794
  1.800   1.806   1.808   1.815   1.832   1.840   1.847   1.856
  1.882   1.883   1.894   1.895   1.925   1.965   2.010   2.051
  2.071   2.459  15.431  16.619
 --------------------------------------------------------------
 
          Ground-State Mulliken Net Atomic Charges

     Atom                 Charge (a.u.)
  ----------------------------------------
      1 Zr                    1.580681
      2 S                     0.268544
      3 O                    -0.602244
      4 O                    -0.891415
      5 O                    -0.895553
      6 Zr                    1.689745
      7 O                    -0.572237
      8 O                    -0.577521
  ----------------------------------------
  Sum of atomic charges =     0.000000

 -----------------------------------------------------------------
                    Cartesian Multipole Moments
 -----------------------------------------------------------------
    Charge (ESU x 10^10)
                 0.0000
    Dipole Moment (Debye)
         X       7.7186      Y       2.9928      Z       0.1985
       Tot       8.2809
    Quadrupole Moments (Debye-Ang)
        XX     -96.0136     XY       7.9064     YY     -90.9813
        XZ      -0.7274     YZ       0.1506     ZZ     -86.7078
    Octopole Moments (Debye-Ang^2)
       XXX      60.4184    XXY      12.6073    XYY      33.0810
       YYY       0.8448    XXZ       1.5719    XYZ      -0.1134
       YYZ       0.0636    XZZ      -4.3016    YZZ      -3.9940
       ZZZ      -0.7251
    Hexadecapole Moments (Debye-Ang^3)
      XXXX   -2846.1035   XXXY     102.7998   XXYY    -619.0113
      XYYY      52.5197   YYYY    -373.2170   XXXZ      -5.5965
      XXYZ       1.1252   XYYZ      -0.5859   YYYZ       0.8078
      XXZZ    -457.4794   XYZZ      12.2149   YYZZ     -95.1541
      XZZZ       0.4186   YZZZ       0.6052   ZZZZ    -243.9844
 -----------------------------------------------------------------
 Calculating analytic gradient of the SCF energy
 Gradient of SCF Energy
            1           2           3           4           5           6
    1  -0.0000261  -0.0000387   0.0001153  -0.0001128   0.0000566  -0.0000439
    2  -0.0000597  -0.0000813   0.0000784   0.0001751  -0.0000371  -0.0000346
    3  -0.0000235   0.0000271   0.0001075  -0.0001238  -0.0000538   0.0000068
            7           8
    1   0.0000084   0.0000413
    2   0.0000283  -0.0000692
    3   0.0000666  -0.0000069
 Max gradient component =       1.751E-04
 RMS gradient           =       7.240E-05
 Gradient time:  CPU 28.75 s  wall 3.57 s
 Geometry Optimization Parameters
   NAtoms,    NIC,     NZ,  NCons,   NDum,   NFix, NCnnct, MaxDiis
        8      73       0       0       0       0       0       0

 Cartesian Hessian Update
 Hessian Updated using BFGS Update


** GEOMETRY OPTIMIZATION IN CARTESIAN COORDINATES **
   Searching for a Minimum

   Optimization Cycle:  58

                       Coordinates (Angstroms)
     ATOM                X               Y               Z
      1  Zr        1.0643876192    0.2890158850    0.0066731964
      2  S         3.7223873817    0.0452960584   -0.0138969586
      3  O         2.6151918466   -1.1496844462    0.0051333635
      4  O        -0.2713938556    0.1741401108   -1.3089930766
      5  O        -0.2615422817    0.1644961109    1.3300147658
      6  Zr       -1.9984881341    0.0375952111    0.0180549242
      7  O        -2.9527980585   -1.5799485194   -0.0122421425
      8  O        -3.0530845177    1.5805095894   -0.0247440723
   Point Group: c1    Number of degrees of freedom:    18


   Energy is   -867.624178470


 Translations and Rotations Projected Out of Hessian

 18 Hessian modes will be used to form the next step
  Hessian Eigenvalues:
     0.001249    0.007203    0.011271    0.013853    0.051673    0.062704
     0.148260    0.203729    0.219188    0.465496    0.527796    0.587513
     0.825476    0.970530    0.992444    1.000147    1.072398    1.116666

 Minimum Search - Taking Simple RFO Step
 Searching for Lamda that Minimizes Along All modes
 Value Taken    Lamda =   0.00000000
 Step Taken.  Stepsize is  0.003136

                             Maximum     Tolerance    Cnvgd?
         Gradient           0.000175      0.000300     YES
         Displacement       0.001715      0.001200      NO
         Energy change     -0.000001      0.000001     YES


                       Distance Matrix (Angstroms)
             Zr(  1)   S (  2)   O (  3)   O (  4)   O (  5)   Zr(  6)
   S (  2)  2.669229
   O (  3)  2.115385  1.629178
   O (  4)  1.878427  4.200496  3.436832
   O (  5)  1.877453  4.206186  3.428991  2.639044
   Zr(  6)  3.073199  5.720970  4.764015  2.182328  2.180441
   O (  7)  4.430707  6.870191  5.584616  3.456634  3.476722  1.878317
   O (  8)  4.315382  6.947231  6.291598  3.371198  3.410744  1.869382
             O (  7)
   O (  8)  3.162074
 
 Final energy is   -867.624178470133     


 ******************************
 **  OPTIMIZATION CONVERGED  **
 ******************************

                       Coordinates (Angstroms)
     ATOM                X               Y               Z
      1  Zr        1.0643876192    0.2890158850    0.0066731964
      2  S         3.7223873817    0.0452960584   -0.0138969586
      3  O         2.6151918466   -1.1496844462    0.0051333635
      4  O        -0.2713938556    0.1741401108   -1.3089930766
      5  O        -0.2615422817    0.1644961109    1.3300147658
      6  Zr       -1.9984881341    0.0375952111    0.0180549242
      7  O        -2.9527980585   -1.5799485194   -0.0122421425
      8  O        -3.0530845177    1.5805095894   -0.0247440723

Z-matrix Print:
$molecule
0 1
Zr
O  1 1.877453
O  1 1.878427 2 89.278945
O  1 2.115385 2 118.239239 3 122.496601 0
S  4 1.629178 1 89.964322 2 127.568219 0
Zr 2 2.180441 1 98.183352 3 0.636330 0
O  6 1.869382 2 114.527935 1 107.344272 0
O  6 1.878317 2 117.681248 1 -112.712765 0
$end

 
 --------------------------------------------------------------
 
                    Orbital Energies (a.u.)
 --------------------------------------------------------------
 
 Alpha MOs
 -- Occupied --
-88.986 -19.255 -19.181 -19.180 -19.155 -19.155  -8.054  -6.019
 -6.014  -6.008  -2.112  -2.051  -1.333  -1.322  -1.314  -1.271
 -1.258  -1.251  -1.075  -0.926  -0.923  -0.877  -0.860  -0.720
 -0.485  -0.474  -0.460  -0.419  -0.402  -0.393  -0.379  -0.372
 -0.359  -0.342  -0.331  -0.324  -0.310  -0.304  -0.303  -0.269
 -- Virtual --
 -0.252  -0.148  -0.094  -0.084  -0.074  -0.056  -0.038  -0.036
 -0.026  -0.005   0.002   0.009   0.011   0.015   0.037   0.041
  0.043   0.048   0.052   0.062   0.067   0.075   0.086   0.106
  0.117   0.138   0.140   0.143   0.160   0.179   0.179   0.198
  0.202   0.206   0.215   0.226   0.227   0.231   0.232   0.249
  0.254   0.261   0.268   0.281   0.283   0.291   0.297   0.306
  0.327   0.342   0.357   0.386   0.389   0.409   0.445   0.469
  0.481   0.493   0.499   0.588   0.655   0.700   0.727   0.732
  0.795   0.808   0.860   0.944   0.992   1.112   1.136   1.144
  1.166   1.182   1.186   1.189   1.212   1.219   1.231   1.251
  1.261   1.268   1.273   1.334   1.630   1.689   1.694   1.715
  1.717   1.742   1.752   1.759   1.765   1.770   1.781   1.794
  1.800   1.806   1.808   1.815   1.832   1.840   1.847   1.856
  1.882   1.883   1.894   1.895   1.925   1.965   2.010   2.051
  2.071   2.459  15.431  16.619
 --------------------------------------------------------------
 
          Ground-State Mulliken Net Atomic Charges

     Atom                 Charge (a.u.)
  ----------------------------------------
      1 Zr                    1.580681
      2 S                     0.268544
      3 O                    -0.602244
      4 O                    -0.891415
      5 O                    -0.895553
      6 Zr                    1.689745
      7 O                    -0.572237
      8 O                    -0.577521
  ----------------------------------------
  Sum of atomic charges =     0.000000

 -----------------------------------------------------------------
                    Cartesian Multipole Moments
 -----------------------------------------------------------------
    Charge (ESU x 10^10)
                 0.0000
    Dipole Moment (Debye)
         X       7.7186      Y       2.9928      Z       0.1985
       Tot       8.2809
    Quadrupole Moments (Debye-Ang)
        XX     -96.0136     XY       7.9064     YY     -90.9813
        XZ      -0.7274     YZ       0.1506     ZZ     -86.7078
    Octopole Moments (Debye-Ang^2)
       XXX      60.4184    XXY      12.6073    XYY      33.0810
       YYY       0.8448    XXZ       1.5719    XYZ      -0.1134
       YYZ       0.0636    XZZ      -4.3016    YZZ      -3.9940
       ZZZ      -0.7251
    Hexadecapole Moments (Debye-Ang^3)
      XXXX   -2846.1035   XXXY     102.7998   XXYY    -619.0113
      XYYY      52.5197   YYYY    -373.2170   XXXZ      -5.5965
      XXYZ       1.1252   XYYZ      -0.5859   YYYZ       0.8078
      XXZZ    -457.4794   XYZZ      12.2149   YYZZ     -95.1541
      XZZZ       0.4186   YZZZ       0.6052   ZZZZ    -243.9844
 -----------------------------------------------------------------
Archival summary:
1\1\hpc3913\OPT\ProcedureUnspecified\BasisUnspecified\r215(+,1)\liqiuy\FriJan1719:32:112020FriJan1719:32:112020\0\\#,OPT,ProcedureUnspecified,BasisUnspecified,\\56,1\Zr\O,1,1.87745\O,1,1.87843,2,89.2789\O,1,2.11539,2,118.239,3,122.497,0\S,4,1.62918,1,89.9643,2,127.568,0\Zr,2,2.18044,1,98.1834,3,0.63633,0\O,6,1.86938,2,114.528,1,107.344,0\O,6,1.87832,2,117.681,1,-112.713,0\\\@

 Total job time:  1618.25s(wall), 17634.51s(cpu) 
 Fri Jan 17 19:32:11 2020

        *************************************************************
        *                                                           *
        *  Thank you very much for using Q-Chem.  Have a nice day.  *
        *                                                           *
        *************************************************************


0 sent ACK to 0 
now end server 0 ... 
cleanup process ... done
