
Running Job 1 of 2 ZrOx.in
qchem ZrOx.in_25638.0 /tmp/5732567.priya/ZrOx.save/ 1
/usr/usc/qchem/4.4/bin/mpi/mpirun_qchem -machinefile /usr/usc/qchem/4.4/bin/mpi/machines -np 1 /usr/usc/qchem/4.4/exe/qcprog.exe ZrOx.in_25638.0 /tmp/5732567.priya/ZrOx.save/

Process 0 of 1 is on hpc3923.hpcc.usc.edu - thread support 0
initial socket setup ...start
initial socket setup ...done 
now start server 0 ... 
Check license passed

                  Welcome to Q-Chem
     A Quantum Leap Into The Future Of Chemistry


 Q-Chem 4.4, Q-Chem, Inc., Pleasanton, CA (2016)

 Y. Shao,  Z. Gan,  E. Epifanovsky,  A. T. B. Gilbert,  M. Wormit,  
 J. Kussmann,  A. W. Lange,  A. Behn,  J. Deng,  X. Feng,  D. Ghosh,  
 M. Goldey,  P. R. Horn,  L. D. Jacobson,  I. Kaliman,  F.Rob,  
 R. Z. Khaliullin,  T. Kus,  A. Landau,  J. Liu,  E. I. Proynov,  Y. M. Rhee,  
 R. M. Richard,  M. A. Rohrdanz,  R. P. Steele,  E. J. Sundstrom,  
 H. L. Woodcock III,  P. M. Zimmerman,  D. Zuev,  B. Albrecht,  E. Alguire,  
 B. Austin,  S. A. Baeppler,  G. J. O. Beran,  Y. A. Bernard,  E. Berquist,  
 K. Brandhorst,  K. B. Bravaya,  S. T. Brown,  D. Casanova,  C.-M. Chang,  
 Y. Chen,  S. H. Chien,  K. D. Closser,  M. P. Coons,  D. L. Crittenden,  
 S. Dasgupta,  M. Diedenhofen,  R. A. DiStasio Jr.,  H. Do,  A. D. Dutoi,  
 R. G. Edgar,  P.-T. Fang,  S. Fatehi,  Q. Feng,  L. Fusti-Molnar,  
 A. Ghysels,  A. Golubeva-Zadorozhnaya,  J. Gomes,  A. Gunina,  
 M. W. D. Hanson-Heine,  P. H. P. Harbach,  A. W. Hauser,  E. G. Hohenstein,  
 Z. C. Holden,  K. Hui,  T.-C. Jagau,  H. Ji,  B. Kaduk,  K. Khistyaev,  
 Jaehoon Kim,  Jihan Kim,  R. A. King,  P. Klunzinger,  D. Kosenkov,  
 T. Kowalczyk,  C. M. Krauter,  A. Kunitsa,  K. U. Lao,  A. Laurent,  
 K. V. Lawler,  D. Lefrancois,  S. Lehtola,  S. V. Levchenko,  C. Y. Lin,  
 Y.-S. Lin,  F. Liu,  E. Livshits,  R. C. Lochan,  A. Luenser,  P. Manohar,  
 S. F. Manzer,  S.-P. Mao,  Y. Mao,  N. Mardirossian,  A. V. Marenich,  
 L. A. Martinez-Martinez,  S. A. Maurer,  N. J. Mayhall,  J.-M. Mewes,  
 A. F. Morrison,  K. Nanda,  C. M. Oana,  R. Olivares-Amaya,  D. P. O'Neill,  
 J. A. Parkhill,  T. M. Perrine,  R. Peverati,  P. A. Pieniazek,  F. Plasser,  
 A. Prociuk,  D. R. Rehn,  E. Rosta,  N. J. Russ,  N. Sergueev,  
 S. M. Sharada,  S. Sharma,  D. W. Small,  A. Sodt,  T. Stauch,  T. Stein,  
 D. Stuck,  Y.-C. Su,  A. J. W. Thom,  T. Tsuchimochi,  L. Vogt,  O. Vydrov,  
 T. Wang,  M. A. Watson,  J. Wenzel,  A. White,  C. F. Williams,  
 V. Vanovschi,  S. Yeganeh,  S. R. Yost,  Z.-Q. You,  I. Y. Zhang,  X. Zhang,  
 Y. Zhao,  B. R. Brooks,  G. K. L. Chan,  D. M. Chipman,  C. J. Cramer,  
 W. A. Goddard III,  M. S. Gordon,  W. J. Hehre,  A. Klamt,  
 H. F. Schaefer III,  M. W. Schmidt,  C. D. Sherrill,  D. G. Truhlar,  
 A. Warshel,  X. Xu,  A. Aspuru-Guzik,  R. Baer,  A. T. Bell,  N. A. Besley,  
 J.-D. Chai,  A. Dreuw,  B. D. Dunietz,  T. R. Furlani,  S. R. Gwaltney,  
 C.-P. Hsu,  Y. Jung,  J. Kong,  D. S. Lambrecht,  W. Liang,  C. Ochsenfeld,  
 V. A. Rassolov,  L. V. Slipchenko,  J. E. Subotnik,  T. Van Voorhis,  
 J. M. Herbert,  A. I. Krylov,  P. M. W. Gill,  M. Head-Gordon

 Contributors to earlier versions of Q-Chem not listed above: 
 R. D. Adamson,  J. Baker,  E. F. C. Byrd,  A. K. Chakraborty,  C.-L. Cheng,  
 H. Dachsel,  R. J. Doerksen,  G. Hawkins,  A. Heyden,  S. Hirata,  
 G. Kedziora,  F. J. Keil,  C. Kelley,  P. P. Korambath,  W. Kurlancheek,  
 A. M. Lee,  M. S. Lee,  D. Liotard,  I. Lotan,  P. E. Maslen,  N. Nair,  
 D. Neuhauser,  R. Olson,  B. Peters,  J. Ritchie,  N. E. Schultz,  
 N. Shenvi,  A. C. Simmonett,  K. S. Thanthiriwatte,  Q. Wu,  W. Zhang

 Please cite Q-Chem as follows:
 Y. Shao et al., Mol. Phys. 113, 184-215 (2015)
 DOI: 10.1080/00268976.2014.952696

 Q-Chem 4.4.1 for Intel X86 Linux

 Parts of Q-Chem use Armadillo 5.200.1 (Boston Tea Smuggler).
 http://arma.sourceforge.net/

 Q-Chem begins on Fri Jan 17 19:07:01 2020  

Host: 
0

     Scratch files written to /tmp/5732567.priya/ZrOx.save//
 Jul2716 11668_ 21447  21445 5558   
 Parallel job on  1  processors
Processing $rem in /usr/usc/qchem/4.4/config/preferences.
 MEM_TOTAL  2000 

Checking the input file for inconsistencies... 	...done.

--------------------------------------------------------------
User input:
--------------------------------------------------------------
$comment
--------------------------------------------------------
A SINGLE POINT DFT CALCULATION WITH BASIS SET PROJECTION
--------------------------------------------------------
$end

$molecule
0 5
Zr -1.51987 -0.13630 0.00026
O -2.50577 -0.18175 -1.38745
O -2.50646 -0.17952 1.38751
S 0.00001 1.71233 -0.00145
O 0.00003 -1.29315 0.00109
Zr 1.51991 -0.13629 -0.00003
O 2.50580 -0.17943 1.38777
O 2.50644 -0.18187 -1.38725
$end

$rem
JOBTYPE   SP
METHOD   B3LYP
BASIS   GEN
ECP   GEN
MAX_SCF_CYCLES   200
SCF_CONVERGENCE 8
SCF_PRINT 1
PDB_PRINT 2
THRESH 14
VARTHRESH 14
INCDFT FALSE
SYMMETRY False
Sym_ignore True
SCF_ALGORITHM GDM
XC_GRID 000128000302
DFT_D           EMPIRICAL_GRIMME3
DFT_D3_S6       1000
DFT_D3_RS6     1261
DFT_D3_S8      1703
DFT_D3_3BODY    FALSE
$end

$basis
O
6-31+G**
****
S
6-31+G**
****
Zr
LanL2DZ
****
$end

$ecp
Zr
LanL2DZ
****
$end

--------------------------------------------------------------
 ----------------------------------------------------------------
             Standard Nuclear Orientation (Angstroms)
    I     Atom           X                Y                Z
 ----------------------------------------------------------------
    1      Zr     -1.5198700000    -0.1363000000     0.0002600000
    2      O      -2.5057700000    -0.1817500000    -1.3874500000
    3      O      -2.5064600000    -0.1795200000     1.3875100000
    4      S       0.0000100000     1.7123300000    -0.0014500000
    5      O       0.0000300000    -1.2931500000     0.0010900000
    6      Zr      1.5199100000    -0.1362900000    -0.0000300000
    7      O       2.5058000000    -0.1794300000     1.3877700000
    8      O       2.5064400000    -0.1818700000    -1.3872500000
 ----------------------------------------------------------------
 Nuclear Repulsion Energy =   525.4852582428 hartrees
 There are       42 alpha and       38 beta electrons

 Q-Chem warning in module /home/scratch/svnadmin/11668_zgan/qchem/forms1/BasisType.C, line 1419:

 Setting pure/cartesian flag to 2111 for general basis


 Requested basis set is non-standard
 There are 47 shells and 156 basis functions

 Total QAlloc Memory Limit   2000 MB
 Mega-Array Size        61 MB
 MEM_STATIC part        62 MB

                       Distance Matrix (Angstroms)
             Zr(  1)   O (  2)   O (  3)   S (  4)   O (  5)   Zr(  6)
   O (  2)  1.702881
   O (  3)  1.702848  2.774961
   S (  4)  2.393214  3.433288  3.433759
   O (  5)  1.910078  3.072830  3.073243  3.005481
   Zr(  6)  3.039780  4.258298  4.258966  2.393218  1.910068
   O (  7)  4.258293  5.728672  5.012260  3.433318  3.072806  1.702888
   O (  8)  4.258924  5.012210  5.729613  3.433748  3.073194  1.702850
             O (  7)
   O (  8)  2.775021
 
 A cutoff of  1.0D-14 yielded   1072 shell pairs
 There are     12031 function pairs (     13612 Cartesian)
 
 -------------------------------------------------------
 OpenMP Integral Computing Module                       
 Release: version 1.0, May 2013, Q-Chem Inc. Pittsburgh 
 -------------------------------------------------------
 Integral Job Info:
 Integral job number is                      11
 Integral operator is                         1
 short-range coefficients                     0
 long-range coefficients              100000000
 Omega coefficients                           0
 if combine SR and LR in K                    0
 Integral screening is                        0
 Integral computing path is                   2
 max size of driver memory is            800000
 size of driver memory is                593474
 size of scratch memory is             15166112
 max col of scratch BK array               1296
 max len of scratch array in speh3          155
 max len of scratch index in speh4           18
 max int batch size is                      520
 min int batch size is                       52
 fixed nKL is                                52
 max L of basis functions is                  2
 order of int derivative is                   0
 number of shells is                         47
 number of basis is                         166
 number of cartesian basis is               166
 number of contracted shell pairs          1072
 number of primitive shell pairs           4856
 maxK2 (contraction) of shell pair           36
 max number of K2 of shell pair               1
 max number of CS2 of shell pair             96
 max number of PS2 of shell pair            498
 mem total for path MDJ                   46168
 -------------------------------------------------------
 Requested basis set is non-standard
 Compound shells will be simplified
 There are 66 shells and 156 basis functions
 A cutoff of  1.0D-14 yielded   2118 shell pairs
 There are     11974 function pairs (     13555 Cartesian)
 Smallest overlap matrix eigenvalue = 5.39E-04

 Scale SEOQF with 1.000000e-01/1.000000e-01/1.000000e-01

 Standard Electronic Orientation quadrupole field applied
 Nucleus-field energy     =     0.0000000070 hartrees
 Guess MOs from core Hamiltonian diagonalization
 An unrestricted hybrid HF-DFT SCF calculation will be
 performed using Geometric Direct Minimization
 Exchange:     0.2000 Hartree-Fock + 0.0800 Slater + 0.7200 B88
 Correlation:  0.1900 VWN1RPA + 0.8100 LYP
 Using Euler-Maclaurin-Lebedev (128,302) quadrature formula
 Dispersion:   Grimme D3
 SCF converges when RMS gradient is below 1.0E-08
 Maximum number of minimization steps = 200
 using 12 threads for integral computing 
 -------------------------------------------------------
 OpenMP BLAS3 based DFT computing Module                
 Release: version 1.0, May 2013, Q-Chem Inc. Pittsburgh 
 -------------------------------------------------------
 
   ------------------- Entering Geometric Direct Minimization ------------------
   GDM:         diagonal hessian shift is      0.000000000000000E+000
   GDM::PreWSS: input subspace size is                  1
   GDM::PreWSS: working subspace size set to            1
   GDM::PrEWSS: # of linearly dependent vectors =            0
   GDM::PrEWSS: Max dev from orthonormality =   2.220446049250313E-016
   GDM::BFGS:   lowest Hinv e-value     1.00000000000000     
   GDM::BFGS:   highest Hinv e-value    1.00000000000000     
   GDM::      : max scaling in EWCs is          1.41421356237309     
   GDM::      : max rotation in step is        8.137083745474474E-002
   GDM::        grad.step =   -3.05839019144270     
   ------- Leaving GDM -- hopefully with a step in the right direction! --------
 
 ---------------------------------------
  Cycle       Energy        RMS Gradient
 ---------------------------------------
    1    -797.3063535649      1.62E+00  Gap = 0.00 eV  Descent step
 
   ------------------- Entering Geometric Direct Minimization ------------------
   GDM::trust : actual energy change is        -3.02984468486750     
   GDM::trust : predicted energy change was   -0.163350000000000     
   GDM::trust : updated trust radius is        0.330000000000000     
   GDM::search:  On step            1 .  The current bracket is:
       left   : x =  0.0000E+00, e =      -797.3063535649, g = -0.9376E+01
       current: x =  0.3262E+00, e =      -800.3361982497, g = -0.9168E+01
       right  : x =  0.1000E+04, e =      1000.0000000000, g =  0.1000E+04
       next   : x =  0.3262E+01
   GDM::      : max rotation in step is        0.813708374547447     
   ------- Leaving GDM -- hopefully with a step in the right direction! --------
 
    2    -800.3361982497      1.73E+01  Gap = -142.69 eV  Line search: understep
 
   ------------------- Entering Geometric Direct Minimization ------------------
   GDM::trust : actual energy change is        -19.2571357237899     
   GDM::trust : predicted energy change was   -0.163350000000000     
   GDM::trust : updated trust radius is        0.330000000000000     
   GDM:         diagonal hessian shift is      0.000000000000000E+000
   GDM::PreWSS: input subspace size is                  2
   GDM::PreWSS: working subspace size set to            2
   GDM::PrEWSS: # of linearly dependent vectors =            0
   GDM::PrEWSS: Max dev from orthonormality =   9.298117831235686E-016
   GDM::BFGS:   lowest Hinv e-value    0.709314317345539     
   GDM::BFGS:   highest Hinv e-value    1.45847755598182     
   GDM::      : max scaling in EWCs is          2.82842712474619     
   GDM::      : max rotation in step is       -0.169297047289370     
   GDM::        grad.step =   -2.60623312578302     
   ------- Leaving GDM -- hopefully with a step in the right direction! --------
 
    3    -816.5634892887      2.06E+00  Gap = -142.69 eV  Descent step
 
   ------------------- Entering Geometric Direct Minimization ------------------
   GDM::trust : actual energy change is        -2.50791022767032     
   GDM::trust : predicted energy change was   -0.163350534967815     
   GDM::trust : updated trust radius is        0.330000000000000     
   GDM:         diagonal hessian shift is      0.000000000000000E+000
   GDM::PreWSS: input subspace size is                  3
   GDM::PreWSS: working subspace size set to            3
   GDM::PrEWSS: # of linearly dependent vectors =            0
   GDM::PrEWSS: Max dev from orthonormality =   2.091382622637639E-014
   GDM::BFGS:   lowest Hinv e-value    0.412403637268509     
   GDM::BFGS:   highest Hinv e-value    2.53530450959640     
   GDM::      : max scaling in EWCs is          2.82842712474619     
   GDM::      : max rotation in step is        0.195778756711352     
   GDM::        grad.step =   -2.13392684055462     
   ------- Leaving GDM -- hopefully with a step in the right direction! --------
 
    4    -819.0713995163      1.36E+00  Gap = -142.69 eV  Descent step
 
   ------------------- Entering Geometric Direct Minimization ------------------
   GDM::trust : actual energy change is        -2.09478857879753     
   GDM::trust : predicted energy change was   -0.145651865206538     
   GDM::trust : updated trust radius is        0.330000000000000     
   GDM:         diagonal hessian shift is      0.000000000000000E+000
   GDM::PreWSS: input subspace size is                  4
   GDM::PreWSS: working subspace size set to            4
   GDM::PrEWSS: # of linearly dependent vectors =            0
   GDM::PrEWSS: Max dev from orthonormality =   5.375699885235008E-013
   GDM::BFGS:   lowest Hinv e-value    0.249315721134507     
   GDM::BFGS:   highest Hinv e-value    3.69402703304043     
   GDM::      : max scaling in EWCs is          2.82842712474619     
   GDM::      : max rotation in step is        0.165407451612668     
   GDM::        grad.step =   -2.05339155939853     
   ------- Leaving GDM -- hopefully with a step in the right direction! --------
 
    5    -821.1661880951      1.10E+00  Gap = -142.69 eV  Descent step
 
   ------------------- Entering Geometric Direct Minimization ------------------
   GDM::trust : actual energy change is        -2.02073660487542     
   GDM::trust : predicted energy change was   -0.133971083379263     
   GDM::trust : updated trust radius is        0.330000000000000     
   GDM:         diagonal hessian shift is      0.000000000000000E+000
   GDM::PreWSS: input subspace size is                  5
   GDM::PreWSS: working subspace size set to            5
   GDM::PrEWSS: # of linearly dependent vectors =            0
   GDM::PrEWSS: Max dev from orthonormality =   2.707903345999796E-013
   GDM::BFGS:   lowest Hinv e-value    0.163019804525394     
   GDM::BFGS:   highest Hinv e-value    3.53875005793659     
   GDM::      : max scaling in EWCs is          2.82842712474619     
   GDM::      : max rotation in step is        0.189590206095784     
   GDM::        grad.step =   -2.12049870326650     
   ------- Leaving GDM -- hopefully with a step in the right direction! --------
 
    6    -823.1869247000      1.34E+00  Gap = -142.69 eV  Descent step
 
   ------------------- Entering Geometric Direct Minimization ------------------
   GDM::trust : actual energy change is        -2.09100998486656     
   GDM::trust : predicted energy change was   -0.134722363054568     
   GDM::trust : updated trust radius is        0.330000000000000     
   GDM:         diagonal hessian shift is      0.000000000000000E+000
   GDM::PreWSS: input subspace size is                  6
   GDM::PreWSS: working subspace size set to            6
   GDM::PrEWSS: # of linearly dependent vectors =            0
   GDM::PrEWSS: Max dev from orthonormality =   6.815201181176178E-012
   GDM::BFGS:   lowest Hinv e-value    0.120954493483070     
   GDM::BFGS:   highest Hinv e-value    3.77606827530589     
   GDM::      : max scaling in EWCs is          2.82842712474619     
   GDM::      : max rotation in step is       -0.352198006128343     
   GDM::        grad.step =   -2.38061192296667     
   ------- Leaving GDM -- hopefully with a step in the right direction! --------
 
    7    -825.2779346849      2.72E+00  Gap = -142.69 eV  Descent step
 
   ------------------- Entering Geometric Direct Minimization ------------------
   GDM::trust : actual energy change is        -2.28336240750184     
   GDM::trust : predicted energy change was   -0.150604283662723     
   GDM::trust : updated trust radius is        0.330000000000000     
   GDM:         diagonal hessian shift is      0.000000000000000E+000
   GDM::PreWSS: input subspace size is                  7
   GDM::PreWSS: working subspace size set to            7
   GDM::PrEWSS: # of linearly dependent vectors =            0
   GDM::PrEWSS: Max dev from orthonormality =   1.221504841719678E-011
   GDM::BFGS:   lowest Hinv e-value    0.122976773596393     
   GDM::BFGS:   highest Hinv e-value    3.68714251121717     
   GDM::      : max scaling in EWCs is          2.82842712474619     
   GDM::      : max rotation in step is       -0.150305212724030     
   GDM::        grad.step =   -2.14735743788008     
   ------- Leaving GDM -- hopefully with a step in the right direction! --------
 
    8    -827.5612970924      1.50E+00  Gap = -142.69 eV  Descent step
 
   ------------------- Entering Geometric Direct Minimization ------------------
   GDM::trust : actual energy change is        -2.13148687098612     
   GDM::trust : predicted energy change was   -0.170704609621003     
   GDM::trust : updated trust radius is        0.330000000000000     
   GDM:         diagonal hessian shift is      0.000000000000000E+000
   GDM::PreWSS: input subspace size is                  8
   GDM::PreWSS: working subspace size set to            8
   GDM::PrEWSS: # of linearly dependent vectors =            0
   GDM::PrEWSS: Max dev from orthonormality =   5.018343206264486E-011
   GDM::BFGS:   lowest Hinv e-value    0.134761933081150     
   GDM::BFGS:   highest Hinv e-value    6.42271976691221     
   GDM::      : max scaling in EWCs is          2.82842712474619     
   GDM::      : max rotation in step is       -0.268045722351073     
   GDM::        grad.step =   -2.44865151133318     
   ------- Leaving GDM -- hopefully with a step in the right direction! --------
 
    9    -829.6927839633      2.13E+00  Gap = -142.69 eV  Descent step
 
   ------------------- Entering Geometric Direct Minimization ------------------
   GDM::trust : actual energy change is        -2.32460258026140     
   GDM::trust : predicted energy change was   -0.145174676801199     
   GDM::trust : updated trust radius is        0.330000000000000     
   GDM:         diagonal hessian shift is      0.000000000000000E+000
   GDM::PreWSS: input subspace size is                  9
   GDM::PreWSS: working subspace size set to            9
   GDM::PrEWSS: # of linearly dependent vectors =            0
   GDM::PrEWSS: Max dev from orthonormality =   2.353073465244382E-011
   GDM::BFGS:   lowest Hinv e-value    0.134667188221395     
   GDM::BFGS:   highest Hinv e-value    5.18649528574558     
   GDM::      : max scaling in EWCs is          2.82842712474619     
   GDM::      : max rotation in step is       -8.645361009837432E-002
   GDM::        grad.step =   -1.85056612794941     
   ------- Leaving GDM -- hopefully with a step in the right direction! --------
 
   10    -832.0173865436      1.11E+00  Gap = -142.69 eV  Descent step
 
   ------------------- Entering Geometric Direct Minimization ------------------
   GDM::trust : actual energy change is        -1.83133562890816     
   GDM::trust : predicted energy change was   -0.146701129582228     
   GDM::trust : updated trust radius is        0.330000000000000     
   GDM::search:  On step            1 .  The current bracket is:
       left   : x =  0.0000E+00, e =      -832.0173865436, g = -0.4252E+01
       current: x =  0.4353E+00, e =      -833.8487221725, g = -0.4130E+01
       right  : x =  0.1000E+04, e =      1000.0000000000, g =  0.1000E+04
       next   : x =  0.4353E+01
   GDM::      : max rotation in step is       -0.864536100983743     
   ------- Leaving GDM -- hopefully with a step in the right direction! --------
 
   11    -833.8487221725      6.49E+00  Gap = -142.69 eV  Line search: understep
 
   ------------------- Entering Geometric Direct Minimization ------------------
   GDM::trust : actual energy change is        -6.02619135628322     
   GDM::trust : predicted energy change was   -0.146701129582228     
   GDM::trust : updated trust radius is        0.330000000000000     
   GDM:         diagonal hessian shift is      0.000000000000000E+000
   GDM::PreWSS: input subspace size is                 10
   GDM::PreWSS: working subspace size set to           10
   GDM::PrEWSS: # of linearly dependent vectors =            0
   GDM::PrEWSS: Max dev from orthonormality =   3.974216788993346E-012
   GDM::BFGS:   lowest Hinv e-value    8.072044063644059E-002
   GDM::BFGS:   highest Hinv e-value    12.2470071441361     
   GDM::      : max scaling in EWCs is          2.82842712474619     
   GDM::      : max rotation in step is       -0.255817914229490     
   GDM::        grad.step =   -3.20373331615179     
   ------- Leaving GDM -- hopefully with a step in the right direction! --------
 
   12    -838.0435778999      3.17E+00  Gap = -142.69 eV  Descent step
 
   ------------------- Entering Geometric Direct Minimization ------------------
   GDM::trust : actual energy change is        -2.97994724325929     
   GDM::trust : predicted energy change was   -0.489886575727031     
   GDM::trust : updated trust radius is        0.330000000000000     
   GDM:         diagonal hessian shift is      0.000000000000000E+000
   GDM::PreWSS: input subspace size is                 11
   GDM::PreWSS: working subspace size set to           11
   GDM::PrEWSS: # of linearly dependent vectors =            0
   GDM::PrEWSS: Max dev from orthonormality =   2.333494682205117E-011
   GDM::BFGS:   lowest Hinv e-value    0.153714721904859     
   GDM::BFGS:   highest Hinv e-value    11.6678992335602     
   GDM::      : max scaling in EWCs is          2.82842712474619     
   GDM::      : max rotation in step is       -0.128073082232168     
   GDM::        grad.step =   -2.22893329505344     
   ------- Leaving GDM -- hopefully with a step in the right direction! --------
 
   13    -841.0235251432      1.12E+00  Gap = -142.69 eV  Descent step
 
   ------------------- Entering Geometric Direct Minimization ------------------
   GDM::trust : actual energy change is        -2.15430287749928     
   GDM::trust : predicted energy change was   -0.210720837163352     
   GDM::trust : updated trust radius is        0.330000000000000     
   GDM:         diagonal hessian shift is      0.000000000000000E+000
   GDM::PreWSS: input subspace size is                 12
   GDM::PreWSS: working subspace size set to           12
   GDM::PrEWSS: # of linearly dependent vectors =            0
   GDM::PrEWSS: Max dev from orthonormality =   3.221373168216246E-011
   GDM::BFGS:   lowest Hinv e-value    0.121231373446509     
   GDM::BFGS:   highest Hinv e-value    11.5691914285034     
   GDM::      : max scaling in EWCs is          2.82842712474619     
   GDM::      : max rotation in step is       -0.134081542064001     
   GDM::        grad.step =   -2.08206152157561     
   ------- Leaving GDM -- hopefully with a step in the right direction! --------
 
   14    -843.1778280207      9.51E-01  Gap = -142.69 eV  Descent step
 
   ------------------- Entering Geometric Direct Minimization ------------------
   GDM::trust : actual energy change is        -2.03779964562102     
   GDM::trust : predicted energy change was   -0.145165563482666     
   GDM::trust : updated trust radius is        0.330000000000000     
   GDM:         diagonal hessian shift is      0.000000000000000E+000
   GDM::PreWSS: input subspace size is                 13
   GDM::PreWSS: working subspace size set to           13
   GDM::PrEWSS: # of linearly dependent vectors =            0
   GDM::PrEWSS: Max dev from orthonormality =   2.688617384283276E-011
   GDM::BFGS:   lowest Hinv e-value    0.108738645781852     
   GDM::BFGS:   highest Hinv e-value    11.7578314517890     
   GDM::      : max scaling in EWCs is          2.82842712474619     
   GDM::      : max rotation in step is       -0.176438022783365     
   GDM::        grad.step =   -1.96086261451176     
   ------- Leaving GDM -- hopefully with a step in the right direction! --------
 
   15    -845.2156276663      1.12E+00  Gap = -142.69 eV  Descent step
 
   ------------------- Entering Geometric Direct Minimization ------------------
   GDM::trust : actual energy change is        -1.92451594041256     
   GDM::trust : predicted energy change was   -0.132828919071725     
   GDM::trust : updated trust radius is        0.330000000000000     
   GDM:         diagonal hessian shift is      0.000000000000000E+000
   GDM::PreWSS: input subspace size is                 14
   GDM::PreWSS: working subspace size set to           14
   GDM::PrEWSS: # of linearly dependent vectors =            0
   GDM::PrEWSS: Max dev from orthonormality =   1.058297373346395E-011
   GDM::BFGS:   lowest Hinv e-value    0.100886713716560     
   GDM::BFGS:   highest Hinv e-value    12.1416443861747     
   GDM::      : max scaling in EWCs is          2.82842712474619     
   GDM::      : max rotation in step is       -0.268294312121902     
   GDM::        grad.step =   -1.82766765680436     
   ------- Leaving GDM -- hopefully with a step in the right direction! --------
 
   16    -847.1401436067      1.59E+00  Gap = -142.69 eV  Descent step
 
   ------------------- Entering Geometric Direct Minimization ------------------
   GDM::trust : actual energy change is        -1.79578092209056     
   GDM::trust : predicted energy change was   -0.133811082700420     
   GDM::trust : updated trust radius is        0.330000000000000     
   GDM:         diagonal hessian shift is      0.000000000000000E+000
   GDM::PreWSS: input subspace size is                 15
   GDM::PreWSS: working subspace size set to           15
   GDM::PrEWSS: # of linearly dependent vectors =            0
   GDM::PrEWSS: Max dev from orthonormality =   2.458051470699552E-011
   GDM::BFGS:   lowest Hinv e-value    0.100778304755938     
   GDM::BFGS:   highest Hinv e-value    12.6038933513067     
   GDM::      : max scaling in EWCs is          2.82842712474619     
   GDM::      : max rotation in step is        0.135909094342933     
   GDM::        grad.step =   -1.76339945096232     
   ------- Leaving GDM -- hopefully with a step in the right direction! --------
 
   17    -848.9359245288      1.26E+00  Gap = -142.69 eV  Descent step
 
   ------------------- Entering Geometric Direct Minimization ------------------
   GDM::trust : actual energy change is        -1.74694147391131     
   GDM::trust : predicted energy change was   -0.134476747983895     
   GDM::trust : updated trust radius is        0.330000000000000     
   GDM:         diagonal hessian shift is      0.000000000000000E+000
   GDM::PreWSS: input subspace size is                 16
   GDM::PreWSS: working subspace size set to           16
   GDM::PrEWSS: # of linearly dependent vectors =            0
   GDM::PrEWSS: Max dev from orthonormality =   1.890683443139807E-011
   GDM::BFGS:   lowest Hinv e-value    7.684725199658599E-002
   GDM::BFGS:   highest Hinv e-value    13.0395849768809     
   GDM::      : max scaling in EWCs is          2.82842712474619     
   GDM::      : max rotation in step is        0.240817298878922     
   GDM::        grad.step =   -1.92388798667837     
   ------- Leaving GDM -- hopefully with a step in the right direction! --------
 
   18    -850.6828660027      2.10E+00  Gap = -142.69 eV  Descent step
 
   ------------------- Entering Geometric Direct Minimization ------------------
   GDM::trust : actual energy change is        -1.88816481988874     
   GDM::trust : predicted energy change was   -0.144483612487814     
   GDM::trust : updated trust radius is        0.330000000000000     
   GDM:         diagonal hessian shift is      0.000000000000000E+000
   GDM::PreWSS: input subspace size is                 17
   GDM::PreWSS: working subspace size set to           17
   GDM::PrEWSS: # of linearly dependent vectors =            0
   GDM::PrEWSS: Max dev from orthonormality =   3.277939031320898E-011
   GDM::BFGS:   lowest Hinv e-value    0.111207312351884     
   GDM::BFGS:   highest Hinv e-value    13.4100068379698     
   GDM::      : max scaling in EWCs is          2.82842712474619     
   GDM::      : max rotation in step is        0.200207072035074     
   GDM::        grad.step =   -1.63296285671331     
   ------- Leaving GDM -- hopefully with a step in the right direction! --------
 
   19    -852.5710308226      1.63E+00  Gap = -142.69 eV  Descent step
 
   ------------------- Entering Geometric Direct Minimization ------------------
   GDM::trust : actual energy change is        -1.59323489141059     
   GDM::trust : predicted energy change was   -0.137660504898490     
   GDM::trust : updated trust radius is        0.330000000000000     
   GDM:         diagonal hessian shift is      0.000000000000000E+000
   GDM::PreWSS: input subspace size is                 18
   GDM::PreWSS: working subspace size set to           18
   GDM::PrEWSS: # of linearly dependent vectors =            0
   GDM::PrEWSS: Max dev from orthonormality =   2.475658567036021E-011
   GDM::BFGS:   lowest Hinv e-value    0.104953418489054     
   GDM::BFGS:   highest Hinv e-value    13.8717356293466     
   GDM::      : max scaling in EWCs is          2.82842712474619     
   GDM::      : max rotation in step is        0.201659288334103     
   GDM::        grad.step =   -1.52590158923717     
   ------- Leaving GDM -- hopefully with a step in the right direction! --------
 
   20    -854.1642657140      1.22E+00  Gap = -142.69 eV  Descent step
 
   ------------------- Entering Geometric Direct Minimization ------------------
   GDM::trust : actual energy change is        -1.49251209119996     
   GDM::trust : predicted energy change was   -0.136695048044459     
   GDM::trust : updated trust radius is        0.330000000000000     
   GDM:         diagonal hessian shift is      0.000000000000000E+000
   GDM::PreWSS: input subspace size is                 19
   GDM::PreWSS: working subspace size set to           18
   GDM::PrEWSS: # of linearly dependent vectors =            0
   GDM::PrEWSS: Max dev from orthonormality =   3.474850268636587E-011
   GDM::BFGS:   lowest Hinv e-value    9.655758587630399E-002
   GDM::BFGS:   highest Hinv e-value    14.4461277117566     
   GDM::      : max scaling in EWCs is          2.82842712474619     
   GDM::      : max rotation in step is        0.402477428230044     
   GDM::        grad.step =   -1.77205774737005     
   ------- Leaving GDM -- hopefully with a step in the right direction! --------
 
   21    -855.6567778052      2.44E+00  Gap = -142.69 eV  Descent step
 
   ------------------- Entering Geometric Direct Minimization ------------------
   GDM::trust : actual energy change is        -1.67302790998508     
   GDM::trust : predicted energy change was   -0.165157440483556     
   GDM::trust : updated trust radius is        0.330000000000000     
   GDM:         diagonal hessian shift is      0.000000000000000E+000
   GDM::PreWSS: input subspace size is                 19
   GDM::PreWSS: working subspace size set to           18
   GDM::PrEWSS: # of linearly dependent vectors =            0
   GDM::PrEWSS: Max dev from orthonormality =   2.102581303509155E-011
   GDM::BFGS:   lowest Hinv e-value    0.109113816617231     
   GDM::BFGS:   highest Hinv e-value    14.9400612084856     
   GDM::      : max scaling in EWCs is          2.82842712474619     
   GDM::      : max rotation in step is       -0.428760025209224     
   GDM::        grad.step =   -1.46197066672595     
   ------- Leaving GDM -- hopefully with a step in the right direction! --------
 
   22    -857.3298057152      2.07E+00  Gap = -142.69 eV  Descent step
 
   ------------------- Entering Geometric Direct Minimization ------------------
   GDM::trust : actual energy change is        -1.40975049952795     
   GDM::trust : predicted energy change was   -0.157078238097051     
   GDM::trust : updated trust radius is        0.330000000000000     
   GDM:         diagonal hessian shift is      0.000000000000000E+000
   GDM::PreWSS: input subspace size is                 19
   GDM::PreWSS: working subspace size set to           18
   GDM::PrEWSS: # of linearly dependent vectors =            0
   GDM::PrEWSS: Max dev from orthonormality =   3.221937387026808E-011
   GDM::BFGS:   lowest Hinv e-value    9.875162047501065E-002
   GDM::BFGS:   highest Hinv e-value    16.5529918661171     
   GDM::      : max scaling in EWCs is          2.82842712474619     
   GDM::      : max rotation in step is        0.421656377932213     
   GDM::        grad.step =   -1.55800262669426     
   ------- Leaving GDM -- hopefully with a step in the right direction! --------
 
   23    -858.7395562147      2.13E+00  Gap = -142.69 eV  Descent step
 
   ------------------- Entering Geometric Direct Minimization ------------------
   GDM::trust : actual energy change is        -1.42782450636435     
   GDM::trust : predicted energy change was   -0.186015751028189     
   GDM::trust : updated trust radius is        0.330000000000000     
   GDM:         diagonal hessian shift is      0.000000000000000E+000
   GDM::PreWSS: input subspace size is                 19
   GDM::PreWSS: working subspace size set to           18
   GDM::PrEWSS: # of linearly dependent vectors =            0
   GDM::PrEWSS: Max dev from orthonormality =   1.291731999142343E-011
   GDM::BFGS:   lowest Hinv e-value    0.109350492343784     
   GDM::BFGS:   highest Hinv e-value    14.4551931370636     
   GDM::      : max scaling in EWCs is          2.82842712474619     
   GDM::      : max rotation in step is       -0.481902090019655     
   GDM::        grad.step =   -1.39888577831658     
   ------- Leaving GDM -- hopefully with a step in the right direction! --------
 
   24    -860.1673807211      2.19E+00  Gap = -142.69 eV  Descent step
 
   ------------------- Entering Geometric Direct Minimization ------------------
   GDM::trust : actual energy change is        -1.26567304178957     
   GDM::trust : predicted energy change was   -0.184235573981359     
   GDM::trust : updated trust radius is        0.330000000000000     
   GDM:         diagonal hessian shift is      0.000000000000000E+000
   GDM::PreWSS: input subspace size is                 19
   GDM::PreWSS: working subspace size set to           18
   GDM::PrEWSS: # of linearly dependent vectors =            0
   GDM::PrEWSS: Max dev from orthonormality =   6.165398053203930E-012
   GDM::BFGS:   lowest Hinv e-value    0.128589888967689     
   GDM::BFGS:   highest Hinv e-value    11.8598845068524     
   GDM::      : max scaling in EWCs is          2.82842712474619     
   GDM::      : max rotation in step is       -0.137932231765488     
   GDM::        grad.step =  -0.910598312668427     
   ------- Leaving GDM -- hopefully with a step in the right direction! --------
 
   25    -861.4330537629      5.43E-01  Gap = -142.69 eV  Descent step
 
   ------------------- Entering Geometric Direct Minimization ------------------
   GDM::trust : actual energy change is       -0.867774610714946     
   GDM::trust : predicted energy change was   -0.158753332931939     
   GDM::trust : updated trust radius is        0.330000000000000     
   GDM:         diagonal hessian shift is      0.000000000000000E+000
   GDM::PreWSS: input subspace size is                 19
   GDM::PreWSS: working subspace size set to           18
   GDM::PrEWSS: # of linearly dependent vectors =            0
   GDM::PrEWSS: Max dev from orthonormality =   7.251012290598879E-012
   GDM::BFGS:   lowest Hinv e-value    0.149965027497085     
   GDM::BFGS:   highest Hinv e-value    12.8416622613472     
   GDM::      : max scaling in EWCs is          2.82842712474619     
   GDM::      : max rotation in step is        0.164574700312646     
   GDM::        grad.step =  -0.822505964247119     
   ------- Leaving GDM -- hopefully with a step in the right direction! --------
 
   26    -862.3008283736      7.02E-01  Gap = -142.69 eV  Descent step
 
   ------------------- Entering Geometric Direct Minimization ------------------
   GDM::trust : actual energy change is       -0.784792020967302     
   GDM::trust : predicted energy change was   -0.136358679159485     
   GDM::trust : updated trust radius is        0.330000000000000     
   GDM:         diagonal hessian shift is      0.000000000000000E+000
   GDM::PreWSS: input subspace size is                 19
   GDM::PreWSS: working subspace size set to           18
   GDM::PrEWSS: # of linearly dependent vectors =            0
   GDM::PrEWSS: Max dev from orthonormality =   8.727241151973431E-012
   GDM::BFGS:   lowest Hinv e-value    0.143637560343360     
   GDM::BFGS:   highest Hinv e-value    7.21791754311044     
   GDM::      : max scaling in EWCs is          2.82842712474619     
   GDM::      : max rotation in step is        0.475089335834427     
   GDM::        grad.step =  -0.795336267768243     
   ------- Leaving GDM -- hopefully with a step in the right direction! --------
 
   27    -863.0856203945      1.33E+00  Gap = -142.69 eV  Descent step
 
   ------------------- Entering Geometric Direct Minimization ------------------
   GDM::trust : actual energy change is       -0.746656616471796     
   GDM::trust : predicted energy change was   -0.133973513376679     
   GDM::trust : updated trust radius is        0.330000000000000     
   GDM:         diagonal hessian shift is      0.000000000000000E+000
   GDM::PreWSS: input subspace size is                 19
   GDM::PreWSS: working subspace size set to           18
   GDM::PrEWSS: # of linearly dependent vectors =            0
   GDM::PrEWSS: Max dev from orthonormality =   1.292289886212217E-011
   GDM::BFGS:   lowest Hinv e-value    0.152202726815649     
   GDM::BFGS:   highest Hinv e-value    7.56087502311333     
   GDM::      : max scaling in EWCs is          2.82842712474619     
   GDM::      : max rotation in step is        0.116012625557235     
   GDM::        grad.step =  -0.624333939858372     
   ------- Leaving GDM -- hopefully with a step in the right direction! --------
 
   28    -863.8322770110      5.08E-01  Gap = -142.69 eV  Descent step
 
   ------------------- Entering Geometric Direct Minimization ------------------
   GDM::trust : actual energy change is       -0.594034105017727     
   GDM::trust : predicted energy change was   -0.152535034398757     
   GDM::trust : updated trust radius is        0.330000000000000     
   GDM:         diagonal hessian shift is      0.000000000000000E+000
   GDM::PreWSS: input subspace size is                 19
   GDM::PreWSS: working subspace size set to           18
   GDM::PrEWSS: # of linearly dependent vectors =            0
   GDM::PrEWSS: Max dev from orthonormality =   1.077648213720916E-011
   GDM::BFGS:   lowest Hinv e-value    0.152051159283342     
   GDM::BFGS:   highest Hinv e-value    7.73113036721738     
   GDM::      : max scaling in EWCs is          2.82842712474619     
   GDM::      : max rotation in step is       -0.198054901432084     
   GDM::        grad.step =  -0.601973752611230     
   ------- Leaving GDM -- hopefully with a step in the right direction! --------
 
   29    -864.4263111160      6.85E-01  Gap = -142.69 eV  Descent step
 
   ------------------- Entering Geometric Direct Minimization ------------------
   GDM::trust : actual energy change is       -0.573188761295341     
   GDM::trust : predicted energy change was   -0.127980277467178     
   GDM::trust : updated trust radius is        0.330000000000000     
   GDM:         diagonal hessian shift is      0.000000000000000E+000
   GDM::PreWSS: input subspace size is                 19
   GDM::PreWSS: working subspace size set to           18
   GDM::PrEWSS: # of linearly dependent vectors =            0
   GDM::PrEWSS: Max dev from orthonormality =   9.656102306632164E-012
   GDM::BFGS:   lowest Hinv e-value    0.144781578043304     
   GDM::BFGS:   highest Hinv e-value    8.35393135115867     
   GDM::      : max scaling in EWCs is          2.82842712474619     
   GDM::      : max rotation in step is       -0.461190595299985     
   GDM::        grad.step =  -0.616919539803047     
   ------- Leaving GDM -- hopefully with a step in the right direction! --------
 
   30    -864.9994998773      9.24E-01  Gap = -142.69 eV  Descent step
 
   ------------------- Entering Geometric Direct Minimization ------------------
   GDM::trust : actual energy change is       -0.542803256097500     
   GDM::trust : predicted energy change was   -0.145385013352405     
   GDM::trust : updated trust radius is        0.330000000000000     
   GDM:         diagonal hessian shift is      0.000000000000000E+000
   GDM::PreWSS: input subspace size is                 19
   GDM::PreWSS: working subspace size set to           18
   GDM::PrEWSS: # of linearly dependent vectors =            0
   GDM::PrEWSS: Max dev from orthonormality =   7.152415812394786E-012
   GDM::BFGS:   lowest Hinv e-value    0.148818320448680     
   GDM::BFGS:   highest Hinv e-value    8.91423836534503     
   GDM::      : max scaling in EWCs is          2.82842712474619     
   GDM::      : max rotation in step is        0.466404047621940     
   GDM::        grad.step =  -0.501917251229544     
   ------- Leaving GDM -- hopefully with a step in the right direction! --------
 
   31    -865.5423031334      7.60E-01  Gap = -142.69 eV  Descent step
 
   ------------------- Entering Geometric Direct Minimization ------------------
   GDM::trust : actual energy change is       -0.468225737381658     
   GDM::trust : predicted energy change was   -0.154434372245458     
   GDM::trust : updated trust radius is        0.330000000000000     
   GDM:         diagonal hessian shift is      0.000000000000000E+000
   GDM::PreWSS: input subspace size is                 19
   GDM::PreWSS: working subspace size set to           18
   GDM::PrEWSS: # of linearly dependent vectors =            0
   GDM::PrEWSS: Max dev from orthonormality =   8.453467092994771E-012
   GDM::BFGS:   lowest Hinv e-value    0.164388120929404     
   GDM::BFGS:   highest Hinv e-value    8.59074165729919     
   GDM::      : max scaling in EWCs is          2.82842712474619     
   GDM::      : max rotation in step is        0.516952504423832     
   GDM::        grad.step =  -0.418266694135235     
   ------- Leaving GDM -- hopefully with a step in the right direction! --------
 
   32    -866.0105288708      7.02E-01  Gap = -142.69 eV  Descent step
 
   ------------------- Entering Geometric Direct Minimization ------------------
   GDM::trust : actual energy change is       -0.364606418945641     
   GDM::trust : predicted energy change was   -0.144722104496903     
   GDM::trust : updated trust radius is        0.330000000000000     
   GDM:         diagonal hessian shift is      0.000000000000000E+000
   GDM::PreWSS: input subspace size is                 19
   GDM::PreWSS: working subspace size set to           18
   GDM::PrEWSS: # of linearly dependent vectors =            0
   GDM::PrEWSS: Max dev from orthonormality =   4.406724984917787E-012
   GDM::BFGS:   lowest Hinv e-value    0.168263991801198     
   GDM::BFGS:   highest Hinv e-value    9.25636125754533     
   GDM::      : max scaling in EWCs is          2.82842712474619     
   GDM::      : max rotation in step is       -0.206473951877318     
   GDM::        grad.step =  -0.277777099258763     
   ------- Leaving GDM -- hopefully with a step in the right direction! --------
 
   33    -866.3751352897      1.86E-01  Gap = -142.69 eV  Descent step
 
   ------------------- Entering Geometric Direct Minimization ------------------
   GDM::trust : actual energy change is       -0.225190046137982     
   GDM::trust : predicted energy change was   -0.163193525257680     
   GDM::trust : updated trust radius is        0.330000000000000     
   GDM:         diagonal hessian shift is      0.000000000000000E+000
   GDM::PreWSS: input subspace size is                 19
   GDM::PreWSS: working subspace size set to           18
   GDM::PrEWSS: # of linearly dependent vectors =            0
   GDM::PrEWSS: Max dev from orthonormality =   5.163683716724599E-012
   GDM::BFGS:   lowest Hinv e-value    0.172163804851647     
   GDM::BFGS:   highest Hinv e-value    11.6567642326754     
   GDM::      : max scaling in EWCs is          2.82842712474619     
   GDM::      : max rotation in step is        0.268815923075604     
   GDM::        grad.step =  -0.204352969746382     
   ------- Leaving GDM -- hopefully with a step in the right direction! --------
 
   34    -866.6003253359      1.78E-01  Gap = -142.69 eV  Descent step
 
   ------------------- Entering Geometric Direct Minimization ------------------
   GDM::trust : actual energy change is       -9.674606966325427E-002
   GDM::trust : predicted energy change was   -0.153864928245832     
   GDM::trust : updated trust radius is        0.330000000000000     
   GDM:         diagonal hessian shift is      0.000000000000000E+000
   GDM::PreWSS: input subspace size is                 19
   GDM::PreWSS: working subspace size set to           18
   GDM::PrEWSS: # of linearly dependent vectors =            0
   GDM::PrEWSS: Max dev from orthonormality =   2.744027227663537E-012
   GDM::BFGS:   lowest Hinv e-value    0.157233344662966     
   GDM::BFGS:   highest Hinv e-value    6.86138213997579     
   GDM::      : max scaling in EWCs is          2.82842712474619     
   GDM::      : max rotation in step is       -0.268883767277598     
   GDM::        grad.step =  -0.285316588573213     
   ------- Leaving GDM -- hopefully with a step in the right direction! --------
 
   35    -866.6970714055      3.74E-01  Gap = -142.69 eV  Descent step
 
   ------------------- Entering Geometric Direct Minimization ------------------
   GDM::trust : actual energy change is        2.371999891215637E-002
   GDM::trust : predicted energy change was   -0.388059372297626     
   GDM::trust : updated trust radius is        0.108900000000000     
   GDM::search:  On step            1 .  The current bracket is:
       left   : x =  0.0000E+00, e =      -866.6970714055, g = -0.4610E+00
       current: x =  0.6190E+00, e =      -866.6733514066, g =  0.4709E+00
       right  : x =  0.1000E+04, e =      1000.0000000000, g =  0.1000E+04
       next   : x =  0.2857E+00
   GDM::      : max rotation in step is       -0.124122842260530     
   ------- Leaving GDM -- hopefully with a step in the right direction! --------
 
   36    -866.6733514066      3.02E-01  Gap = -142.69 eV  Line search: overstep
 
   ------------------- Entering Geometric Direct Minimization ------------------
   GDM::trust : actual energy change is       -6.318366596940450E-002
   GDM::trust : predicted energy change was   -0.388059372297626     
   GDM::trust : updated trust radius is        0.108900000000000     
   GDM:         diagonal hessian shift is      0.000000000000000E+000
   GDM::PreWSS: input subspace size is                 19
   GDM::PreWSS: working subspace size set to           18
   GDM::PrEWSS: # of linearly dependent vectors =            0
   GDM::PrEWSS: Max dev from orthonormality =   2.050550701460097E-012
   GDM::BFGS:   lowest Hinv e-value    0.115789617830069     
   GDM::BFGS:   highest Hinv e-value    6.19771319697137     
   GDM::      : max scaling in EWCs is          2.82842712474619     
   GDM::      : max rotation in step is       -9.284328117178592E-002
   GDM::        grad.step =  -3.885243222550643E-002
   ------- Leaving GDM -- hopefully with a step in the right direction! --------
 
   37    -866.7602550715      1.33E-01  Gap = -142.69 eV  Descent step
 
   ------------------- Entering Geometric Direct Minimization ------------------
   GDM::trust : actual energy change is       -2.441334505681425E-002
   GDM::trust : predicted energy change was   -2.711830117328068E-002
   GDM::trust : updated trust radius is        0.330000000000000     
   GDM:         diagonal hessian shift is      0.000000000000000E+000
   GDM::PreWSS: input subspace size is                 19
   GDM::PreWSS: working subspace size set to           18
   GDM::PrEWSS: # of linearly dependent vectors =            0
   GDM::PrEWSS: Max dev from orthonormality =   4.576998502425766E-012
   GDM::BFGS:   lowest Hinv e-value    0.127740223479537     
   GDM::BFGS:   highest Hinv e-value    6.54200564003617     
   GDM::      : max scaling in EWCs is          2.82842712474619     
   GDM::      : max rotation in step is       -0.237902785172854     
   GDM::        grad.step =  -0.126916981473273     
   ------- Leaving GDM -- hopefully with a step in the right direction! --------
 
   38    -866.7846684166      1.76E-01  Gap = -142.69 eV  Descent step
 
   ------------------- Entering Geometric Direct Minimization ------------------
   GDM::trust : actual energy change is        4.225340531115762E-002
   GDM::trust : predicted energy change was   -0.340168836777275     
   GDM::trust : updated trust radius is        0.108900000000000     
   GDM::search:  On step            1 .  The current bracket is:
       left   : x =  0.0000E+00, e =      -866.7846684166, g = -0.2058E+00
       current: x =  0.6168E+00, e =      -866.7424150113, g =  0.2948E+00
       right  : x =  0.1000E+04, e =      1000.0000000000, g =  0.1000E+04
       next   : x =  0.2314E+00
   GDM::      : max rotation in step is       -8.924110168494925E-002
   ------- Leaving GDM -- hopefully with a step in the right direction! --------
 
   39    -866.7424150113      3.20E-01  Gap = -142.69 eV  Line search: overstep
 
   ------------------- Entering Geometric Direct Minimization ------------------
   GDM::trust : actual energy change is       -2.181390361943158E-002
   GDM::trust : predicted energy change was   -0.340168836777275     
   GDM::trust : updated trust radius is        0.108900000000000     
   GDM:         diagonal hessian shift is      0.000000000000000E+000
   GDM::PreWSS: input subspace size is                 19
   GDM::PreWSS: working subspace size set to           18
   GDM::PrEWSS: # of linearly dependent vectors =            0
   GDM::PrEWSS: Max dev from orthonormality =   3.958923466829134E-012
   GDM::BFGS:   lowest Hinv e-value    0.108289315920428     
   GDM::BFGS:   highest Hinv e-value    4.96806114064648     
   GDM::      : max scaling in EWCs is          2.82842712474619     
   GDM::      : max rotation in step is        9.609313621422381E-002
   GDM::        grad.step =  -5.258756681870954E-002
   ------- Leaving GDM -- hopefully with a step in the right direction! --------
 
   40    -866.8064823202      2.66E-01  Gap = -142.69 eV  Descent step
 
   ------------------- Entering Geometric Direct Minimization ------------------
   GDM::trust : actual energy change is       -2.455016403166610E-002
   GDM::trust : predicted energy change was   -5.004091275922016E-002
   GDM::trust : updated trust radius is        0.330000000000000     
   GDM:         diagonal hessian shift is      0.000000000000000E+000
   GDM::PreWSS: input subspace size is                 19
   GDM::PreWSS: working subspace size set to           18
   GDM::PrEWSS: # of linearly dependent vectors =            0
   GDM::PrEWSS: Max dev from orthonormality =   5.310283462955923E-012
   GDM::BFGS:   lowest Hinv e-value    0.119712426656665     
   GDM::BFGS:   highest Hinv e-value    4.62861294776194     
   GDM::      : max scaling in EWCs is          2.82842712474619     
   GDM::      : max rotation in step is       -0.414839773901595     
   GDM::        grad.step =  -0.163005219124552     
   ------- Leaving GDM -- hopefully with a step in the right direction! --------
 
   41    -866.8310324842      3.48E-01  Gap = -142.69 eV  Descent step
 
   ------------------- Entering Geometric Direct Minimization ------------------
   GDM::trust : actual energy change is       -3.942969985371292E-002
   GDM::trust : predicted energy change was   -0.336198112637301     
   GDM::trust : updated trust radius is        0.330000000000000     
   GDM:         diagonal hessian shift is      0.000000000000000E+000
   GDM::PreWSS: input subspace size is                 19
   GDM::PreWSS: working subspace size set to           18
   GDM::PrEWSS: # of linearly dependent vectors =            0
   GDM::PrEWSS: Max dev from orthonormality =   3.034759943343346E-012
   GDM::BFGS:   lowest Hinv e-value    0.100221084623023     
   GDM::BFGS:   highest Hinv e-value    6.54785222828476     
   GDM::      : max scaling in EWCs is          2.82842712474619     
   GDM::      : max rotation in step is       -0.421830119110930     
   GDM::        grad.step =  -0.478520149570493     
   ------- Leaving GDM -- hopefully with a step in the right direction! --------
 
   42    -866.8704621841      6.55E-01  Gap = -142.69 eV  Descent step
 
   ------------------- Entering Geometric Direct Minimization ------------------
   GDM::trust : actual energy change is       -0.124032390533785     
   GDM::trust : predicted energy change was   -0.564988047525175     
   GDM::trust : updated trust radius is        0.330000000000000     
   GDM:         diagonal hessian shift is      0.000000000000000E+000
   GDM::PreWSS: input subspace size is                 19
   GDM::PreWSS: working subspace size set to           18
   GDM::PrEWSS: # of linearly dependent vectors =            0
   GDM::PrEWSS: Max dev from orthonormality =   2.587024344746780E-012
   GDM::BFGS:   lowest Hinv e-value    0.109729981283650     
   GDM::BFGS:   highest Hinv e-value    6.97110624152252     
   GDM::      : max scaling in EWCs is          2.82842712474619     
   GDM::      : max rotation in step is       -0.410227217537224     
   GDM::        grad.step =  -0.412279839405888     
   ------- Leaving GDM -- hopefully with a step in the right direction! --------
 
   43    -866.9944945746      5.49E-01  Gap = -142.69 eV  Descent step
 
   ------------------- Entering Geometric Direct Minimization ------------------
   GDM::trust : actual energy change is        0.114765878561798     
   GDM::trust : predicted energy change was   -0.547356555589574     
   GDM::trust : updated trust radius is        0.108900000000000     
   GDM::search:  On step            1 .  The current bracket is:
       left   : x =  0.0000E+00, e =      -866.9944945746, g = -0.5413E+00
       current: x =  0.7616E+00, e =      -866.8797286961, g =  0.8507E+00
       right  : x =  0.1000E+04, e =      1000.0000000000, g =  0.1000E+04
       next   : x =  0.2979E+00
   GDM::      : max rotation in step is       -0.160449469182995     
   ------- Leaving GDM -- hopefully with a step in the right direction! --------
 
   44    -866.8797286961      9.47E-01  Gap = -142.69 eV  Line search: overstep
 
   ------------------- Entering Geometric Direct Minimization ------------------
   GDM::trust : actual energy change is       -8.532117126731009E-002
   GDM::trust : predicted energy change was   -0.547356555589574     
   GDM::trust : updated trust radius is        0.108900000000000     
   GDM:         diagonal hessian shift is      0.000000000000000E+000
   GDM::PreWSS: input subspace size is                 19
   GDM::PreWSS: working subspace size set to           18
   GDM::PrEWSS: # of linearly dependent vectors =            0
   GDM::PrEWSS: Max dev from orthonormality =   2.204809251837858E-012
   GDM::BFGS:   lowest Hinv e-value    0.136668641544112     
   GDM::BFGS:   highest Hinv e-value    6.80017504626759     
   GDM::      : max scaling in EWCs is          2.82842712474619     
   GDM::      : max rotation in step is       -5.627728255798383E-002
   GDM::        grad.step =  -2.622864999989518E-002
   ------- Leaving GDM -- hopefully with a step in the right direction! --------
 
   45    -867.0798157459      9.66E-02  Gap = -142.69 eV  Descent step
 
   ------------------- Entering Geometric Direct Minimization ------------------
   GDM::trust : actual energy change is       -1.188515580122385E-002
   GDM::trust : predicted energy change was   -1.662894906855561E-002
   GDM::trust : updated trust radius is        0.330000000000000     
   GDM:         diagonal hessian shift is      0.000000000000000E+000
   GDM::PreWSS: input subspace size is                 19
   GDM::PreWSS: working subspace size set to           18
   GDM::PrEWSS: # of linearly dependent vectors =            0
   GDM::PrEWSS: Max dev from orthonormality =   1.112127751001779E-012
   GDM::BFGS:   lowest Hinv e-value    0.134219654777910     
   GDM::BFGS:   highest Hinv e-value    5.82210940070165     
   GDM::trust : dogleg step length is          0.330000000000000     
   GDM::      : max scaling in EWCs is          2.82842712474619     
   GDM::      : max rotation in step is       -0.259705680643441     
   GDM::        grad.step =  -7.709967668586264E-002
   ------- Leaving GDM -- hopefully with a step in the right direction! --------
 
   46    -867.0917009017      9.14E-02  Gap = -142.69 eV  Dog-leg BFGS step
 
   ------------------- Entering Geometric Direct Minimization ------------------
   GDM::trust : actual energy change is        9.213136795801802E-002
   GDM::trust : predicted energy change was   -0.164174746712508     
   GDM::trust : updated trust radius is        0.108900000000000     
   GDM::search:  On step            1 .  The current bracket is:
       left   : x =  0.0000E+00, e =      -867.0917009017, g = -0.1379E+00
       current: x =  0.5590E+00, e =      -866.9995695337, g =  0.4612E+00
       right  : x =  0.1000E+04, e =      1000.0000000000, g =  0.1000E+04
       next   : x =  0.1273E+00
   GDM::      : max rotation in step is       -5.915942920882760E-002
   ------- Leaving GDM -- hopefully with a step in the right direction! --------
 
   47    -866.9995695337      1.43E+00  Gap = -142.69 eV  Line search: overstep
 
   ------------------- Entering Geometric Direct Minimization ------------------
   GDM::trust : actual energy change is       -8.927941411229767E-003
   GDM::trust : predicted energy change was   -0.164174746712508     
   GDM::trust : updated trust radius is        0.108900000000000     
   GDM:         diagonal hessian shift is      0.000000000000000E+000
   GDM::PreWSS: input subspace size is                 19
   GDM::PreWSS: working subspace size set to           18
   GDM::PrEWSS: # of linearly dependent vectors =            0
   GDM::PrEWSS: Max dev from orthonormality =   5.533073998975624E-013
   GDM::BFGS:   lowest Hinv e-value    0.134710336432654     
   GDM::BFGS:   highest Hinv e-value    4.57907685606155     
   GDM::      : max scaling in EWCs is          2.82842712474619     
   GDM::      : max rotation in step is        9.933021777890352E-002
   GDM::        grad.step =  -1.470295477788737E-002
   ------- Leaving GDM -- hopefully with a step in the right direction! --------
 
   48    -867.1006288431      4.69E-02  Gap = -142.69 eV  Descent step
 
   ------------------- Entering Geometric Direct Minimization ------------------
   GDM::trust : actual energy change is        1.333082115240813E-002
   GDM::trust : predicted energy change was   -3.037453701993362E-002
   GDM::trust : updated trust radius is        0.108900000000000     
   GDM::search:  On step            1 .  The current bracket is:
       left   : x =  0.0000E+00, e =      -867.1006288431, g = -0.6784E-01
       current: x =  0.2167E+00, e =      -867.0872980219, g =  0.1847E+00
       right  : x =  0.1000E+04, e =      1000.0000000000, g =  0.1000E+04
       next   : x =  0.5684E-01
   GDM::      : max rotation in step is        2.604800194794037E-002
   ------- Leaving GDM -- hopefully with a step in the right direction! --------
 
   49    -867.0872980219      1.86E-01  Gap = -142.69 eV  Line search: overstep
 
   ------------------- Entering Geometric Direct Minimization ------------------
   GDM::trust : actual energy change is       -1.869506410571375E-003
   GDM::trust : predicted energy change was   -3.037453701993362E-002
   GDM::trust : updated trust radius is        0.108900000000000     
   GDM:         diagonal hessian shift is      0.000000000000000E+000
   GDM::PreWSS: input subspace size is                 19
   GDM::PreWSS: working subspace size set to           18
   GDM::PrEWSS: # of linearly dependent vectors =            0
   GDM::PrEWSS: Max dev from orthonormality =   8.130440765086178E-013
   GDM::BFGS:   lowest Hinv e-value    0.102708888709947     
   GDM::BFGS:   highest Hinv e-value    4.66610379008150     
   GDM::      : max scaling in EWCs is          2.82842712474619     
   GDM::      : max rotation in step is        0.159389904766106     
   GDM::        grad.step =  -1.364019927313252E-002
   ------- Leaving GDM -- hopefully with a step in the right direction! --------
 
   50    -867.1024983495      6.48E-02  Gap = -142.69 eV  Descent step
 
   ------------------- Entering Geometric Direct Minimization ------------------
   GDM::trust : actual energy change is        1.843762838120711E-002
   GDM::trust : predicted energy change was   -4.449951351059064E-002
   GDM::trust : updated trust radius is        0.108900000000000     
   GDM::search:  On step            1 .  The current bracket is:
       left   : x =  0.0000E+00, e =      -867.1024983495, g = -0.5409E-01
       current: x =  0.2522E+00, e =      -867.0840607211, g =  0.1947E+00
       right  : x =  0.1000E+04, e =      1000.0000000000, g =  0.1000E+04
       next   : x =  0.5361E-01
   GDM::      : max rotation in step is        3.388805012862482E-002
   ------- Leaving GDM -- hopefully with a step in the right direction! --------
 
   51    -867.0840607211      4.42E-01  Gap = -142.69 eV  Line search: overstep
 
   ------------------- Entering Geometric Direct Minimization ------------------
   GDM::trust : actual energy change is       -1.420184943981440E-003
   GDM::trust : predicted energy change was   -4.449951351059064E-002
   GDM::trust : updated trust radius is        0.108900000000000     
   GDM:         diagonal hessian shift is      0.000000000000000E+000
   GDM::PreWSS: input subspace size is                 19
   GDM::PreWSS: working subspace size set to           18
   GDM::PrEWSS: # of linearly dependent vectors =            0
   GDM::PrEWSS: Max dev from orthonormality =   9.447321397404451E-013
   GDM::BFGS:   lowest Hinv e-value    9.430676385861340E-002
   GDM::BFGS:   highest Hinv e-value    4.64232704433505     
   GDM::      : max scaling in EWCs is          2.82842712474619     
   GDM::      : max rotation in step is       -0.141697115842502     
   GDM::        grad.step =  -1.276735795418547E-002
   ------- Leaving GDM -- hopefully with a step in the right direction! --------
 
   52    -867.1039185344      5.39E-02  Gap = -142.69 eV  Descent step
 
   ------------------- Entering Geometric Direct Minimization ------------------
   GDM::trust : actual energy change is        1.579603554375808E-002
   GDM::trust : predicted energy change was   -4.683986262726309E-002
   GDM::trust : updated trust radius is        0.108900000000000     
   GDM::search:  On step            1 .  The current bracket is:
       left   : x =  0.0000E+00, e =      -867.1039185344, g = -0.4976E-01
       current: x =  0.2566E+00, e =      -867.0881224989, g =  0.1650E+00
       right  : x =  0.1000E+04, e =      1000.0000000000, g =  0.1000E+04
       next   : x =  0.5735E-01
   GDM::      : max rotation in step is       -3.166811743091997E-002
   ------- Leaving GDM -- hopefully with a step in the right direction! --------
 
   53    -867.0881224989      7.73E-02  Gap = -142.69 eV  Line search: overstep
 
   ------------------- Entering Geometric Direct Minimization ------------------
   GDM::trust : actual energy change is       -1.365485055771387E-003
   GDM::trust : predicted energy change was   -4.683986262726309E-002
   GDM::trust : updated trust radius is        0.108900000000000     
   GDM:         diagonal hessian shift is      0.000000000000000E+000
   GDM::PreWSS: input subspace size is                 19
   GDM::PreWSS: working subspace size set to           18
   GDM::PrEWSS: # of linearly dependent vectors =            0
   GDM::PrEWSS: Max dev from orthonormality =   2.144746186205637E-012
   GDM::BFGS:   lowest Hinv e-value    9.044017010102463E-002
   GDM::BFGS:   highest Hinv e-value    4.37554987904445     
   GDM::      : max scaling in EWCs is          2.82842712474619     
   GDM::      : max rotation in step is        0.143248845843631     
   GDM::        grad.step =  -1.379728896445416E-002
   ------- Leaving GDM -- hopefully with a step in the right direction! --------
 
   54    -867.1052840195      5.89E-02  Gap = -142.69 eV  Descent step
 
   ------------------- Entering Geometric Direct Minimization ------------------
   GDM::trust : actual energy change is        1.745809366548201E-002
   GDM::trust : predicted energy change was   -5.184208140845956E-002
   GDM::trust : updated trust radius is        0.108900000000000     
   GDM::search:  On step            1 .  The current bracket is:
       left   : x =  0.0000E+00, e =      -867.1052840195, g = -0.5203E-01
       current: x =  0.2652E+00, e =      -867.0878259258, g =  0.1744E+00
       right  : x =  0.1000E+04, e =      1000.0000000000, g =  0.1000E+04
       next   : x =  0.5853E-01
   GDM::      : max rotation in step is        3.161768555724054E-002
   ------- Leaving GDM -- hopefully with a step in the right direction! --------
 
   55    -867.0878259258      1.27E-01  Gap = -142.69 eV  Line search: overstep
 
   ------------------- Entering Geometric Direct Minimization ------------------
   GDM::trust : actual energy change is       -1.449990970741055E-003
   GDM::trust : predicted energy change was   -5.184208140845956E-002
   GDM::trust : updated trust radius is        0.108900000000000     
   GDM:         diagonal hessian shift is      0.000000000000000E+000
   GDM::PreWSS: input subspace size is                 19
   GDM::PreWSS: working subspace size set to           18
   GDM::PrEWSS: # of linearly dependent vectors =            0
   GDM::PrEWSS: Max dev from orthonormality =   4.239185391607947E-012
   GDM::BFGS:   lowest Hinv e-value    9.207510251146162E-002
   GDM::BFGS:   highest Hinv e-value    4.43387941575282     
   GDM::      : max scaling in EWCs is          2.82842712474619     
   GDM::      : max rotation in step is       -0.160815002462660     
   GDM::        grad.step =  -1.365000836392546E-002
   ------- Leaving GDM -- hopefully with a step in the right direction! --------
 
   56    -867.1067340105      6.54E-02  Gap = -142.69 eV  Descent step
 
   ------------------- Entering Geometric Direct Minimization ------------------
   GDM::trust : actual energy change is        1.383164540618509E-002
   GDM::trust : predicted energy change was   -4.798820064198708E-002
   GDM::trust : updated trust radius is        0.108900000000000     
   GDM::search:  On step            1 .  The current bracket is:
       left   : x =  0.0000E+00, e =      -867.1067340105, g = -0.5095E-01
       current: x =  0.2679E+00, e =      -867.0929023651, g =  0.1457E+00
       right  : x =  0.1000E+04, e =      1000.0000000000, g =  0.1000E+04
       next   : x =  0.6653E-01
   GDM::      : max rotation in step is       -3.993802823917848E-002
   ------- Leaving GDM -- hopefully with a step in the right direction! --------
 
   57    -867.0929023651      1.19E-01  Gap = -142.69 eV  Line search: overstep
 
   ------------------- Entering Geometric Direct Minimization ------------------
   GDM::trust : actual energy change is       -1.611012427815695E-003
   GDM::trust : predicted energy change was   -4.798820064198708E-002
   GDM::trust : updated trust radius is        0.108900000000000     
   GDM:         diagonal hessian shift is      0.000000000000000E+000
   GDM::PreWSS: input subspace size is                 19
   GDM::PreWSS: working subspace size set to           18
   GDM::PrEWSS: # of linearly dependent vectors =            0
   GDM::PrEWSS: Max dev from orthonormality =   1.059907717149144E-011
   GDM::BFGS:   lowest Hinv e-value    9.181783611321105E-002
   GDM::BFGS:   highest Hinv e-value    4.73055226812529     
   GDM::      : max scaling in EWCs is          2.82842712474619     
   GDM::      : max rotation in step is       -0.119990176923663     
   GDM::        grad.step =  -1.530541472300626E-002
   ------- Leaving GDM -- hopefully with a step in the right direction! --------
 
   58    -867.1083450229      5.48E-02  Gap = -142.69 eV  Descent step
 
   ------------------- Entering Geometric Direct Minimization ------------------
   GDM::trust : actual energy change is        1.415861484110792E-002
   GDM::trust : predicted energy change was   -5.106805936402627E-002
   GDM::trust : updated trust radius is        0.108900000000000     
   GDM::search:  On step            1 .  The current bracket is:
       left   : x =  0.0000E+00, e =      -867.1083450229, g = -0.5693E-01
       current: x =  0.2688E+00, e =      -867.0941864081, g =  0.1532E+00
       right  : x =  0.1000E+04, e =      1000.0000000000, g =  0.1000E+04
       next   : x =  0.6983E-01
   GDM::      : max rotation in step is       -3.116510958739211E-002
   ------- Leaving GDM -- hopefully with a step in the right direction! --------
 
   59    -867.0941864081      1.35E-01  Gap = -142.69 eV  Line search: overstep
 
   ------------------- Entering Geometric Direct Minimization ------------------
   GDM::trust : actual energy change is       -1.889962282234592E-003
   GDM::trust : predicted energy change was   -5.106805936402627E-002
   GDM::trust : updated trust radius is        0.108900000000000     
   GDM:         diagonal hessian shift is      0.000000000000000E+000
   GDM::PreWSS: input subspace size is                 19
   GDM::PreWSS: working subspace size set to           18
   GDM::PrEWSS: # of linearly dependent vectors =            0
   GDM::PrEWSS: Max dev from orthonormality =   3.376420670830882E-011
   GDM::BFGS:   lowest Hinv e-value    9.428674860147640E-002
   GDM::BFGS:   highest Hinv e-value    5.29403481216178     
   GDM::      : max scaling in EWCs is          2.82842712474619     
   GDM::      : max rotation in step is       -0.138942318227820     
   GDM::        grad.step =  -1.573310685052848E-002
   ------- Leaving GDM -- hopefully with a step in the right direction! --------
 
   60    -867.1102349852      6.52E-02  Gap = -142.69 eV  Descent step
 
   ------------------- Entering Geometric Direct Minimization ------------------
   GDM::trust : actual energy change is        1.104558743736561E-002
   GDM::trust : predicted energy change was   -4.719077902177328E-002
   GDM::trust : updated trust radius is        0.108900000000000     
   GDM::search:  On step            1 .  The current bracket is:
       left   : x =  0.0000E+00, e =      -867.1102349852, g = -0.5833E-01
       current: x =  0.2697E+00, e =      -867.0991893977, g =  0.1324E+00
       right  : x =  0.1000E+04, e =      1000.0000000000, g =  0.1000E+04
       next   : x =  0.7923E-01
   GDM::      : max rotation in step is       -4.081592469067182E-002
   ------- Leaving GDM -- hopefully with a step in the right direction! --------
 
   61    -867.0991893977      1.27E-01  Gap = -142.69 eV  Line search: overstep
 
   ------------------- Entering Geometric Direct Minimization ------------------
   GDM::trust : actual energy change is       -2.208983771311068E-003
   GDM::trust : predicted energy change was   -4.719077902177328E-002
   GDM::trust : updated trust radius is        0.108900000000000     
   GDM:         diagonal hessian shift is      0.000000000000000E+000
   GDM::PreWSS: input subspace size is                 19
   GDM::PreWSS: working subspace size set to           18
   GDM::PrEWSS: # of linearly dependent vectors =            0
   GDM::PrEWSS: Max dev from orthonormality =   8.757558567218382E-011
   GDM::BFGS:   lowest Hinv e-value    9.533367397594147E-002
   GDM::BFGS:   highest Hinv e-value    6.22172109183100     
   GDM::      : max scaling in EWCs is          2.82842712474619     
   GDM::      : max rotation in step is       -0.119372438984199     
   GDM::        grad.step =  -1.753661754423690E-002
   ------- Leaving GDM -- hopefully with a step in the right direction! --------
 
   62    -867.1124439690      6.24E-02  Gap = -142.69 eV  Descent step
 
   ------------------- Entering Geometric Direct Minimization ------------------
   GDM::trust : actual energy change is        1.071718844650604E-002
   GDM::trust : predicted energy change was   -4.873923652347986E-002
   GDM::trust : updated trust radius is        0.108900000000000     
   GDM::search:  On step            1 .  The current bracket is:
       left   : x =  0.0000E+00, e =      -867.1124439690, g = -0.6570E-01
       current: x =  0.2669E+00, e =      -867.1017267805, g =  0.1385E+00
       right  : x =  0.1000E+04, e =      1000.0000000000, g =  0.1000E+04
       next   : x =  0.8283E-01
   GDM::      : max rotation in step is       -3.704613828796246E-002
   ------- Leaving GDM -- hopefully with a step in the right direction! --------
 
   63    -867.1017267805      1.53E-01  Gap = -142.69 eV  Line search: overstep
 
   ------------------- Entering Geometric Direct Minimization ------------------
   GDM::trust : actual energy change is       -2.615603077288142E-003
   GDM::trust : predicted energy change was   -4.873923652347986E-002
   GDM::trust : updated trust radius is        0.108900000000000     
   GDM:         diagonal hessian shift is      0.000000000000000E+000
   GDM::PreWSS: input subspace size is                 19
   GDM::PreWSS: working subspace size set to           18
   GDM::PrEWSS: # of linearly dependent vectors =            0
   GDM::PrEWSS: Max dev from orthonormality =   1.163000355741683E-010
   GDM::BFGS:   lowest Hinv e-value    9.837514947849312E-002
   GDM::BFGS:   highest Hinv e-value    7.42069922027110     
   GDM::      : max scaling in EWCs is          2.82842712474619     
   GDM::      : max rotation in step is        0.106885924281452     
   GDM::        grad.step =  -1.810726838496128E-002
   ------- Leaving GDM -- hopefully with a step in the right direction! --------
 
   64    -867.1150595720      5.77E-02  Gap = -142.69 eV  Descent step
 
   ------------------- Entering Geometric Direct Minimization ------------------
   GDM::trust : actual energy change is        8.167096598981516E-003
   GDM::trust : predicted energy change was   -4.517881852577223E-002
   GDM::trust : updated trust radius is        0.108900000000000     
   GDM::search:  On step            1 .  The current bracket is:
       left   : x =  0.0000E+00, e =      -867.1150595720, g = -0.6786E-01
       current: x =  0.2668E+00, e =      -867.1068924754, g =  0.1224E+00
       right  : x =  0.1000E+04, e =      1000.0000000000, g =  0.1000E+04
       next   : x =  0.9194E-01
   GDM::      : max rotation in step is        3.683080673351578E-002
   ------- Leaving GDM -- hopefully with a step in the right direction! --------
 
   65    -867.1068924754      1.34E-01  Gap = -142.69 eV  Line search: overstep
 
   ------------------- Entering Geometric Direct Minimization ------------------
   GDM::trust : actual energy change is       -3.011317342384245E-003
   GDM::trust : predicted energy change was   -4.517881852577223E-002
   GDM::trust : updated trust radius is        0.108900000000000     
   GDM:         diagonal hessian shift is      0.000000000000000E+000
   GDM::PreWSS: input subspace size is                 19
   GDM::PreWSS: working subspace size set to           18
   GDM::PrEWSS: # of linearly dependent vectors =            0
   GDM::PrEWSS: Max dev from orthonormality =   5.140242398393724E-010
   GDM::BFGS:   lowest Hinv e-value    0.100130832696631     
   GDM::BFGS:   highest Hinv e-value    8.98066523396546     
   GDM::      : max scaling in EWCs is          2.82842712474619     
   GDM::      : max rotation in step is        0.105954985271016     
   GDM::        grad.step =  -1.955748860546821E-002
   ------- Leaving GDM -- hopefully with a step in the right direction! --------
 
   66    -867.1180708894      6.42E-02  Gap = -142.69 eV  Descent step
 
   ------------------- Entering Geometric Direct Minimization ------------------
   GDM::trust : actual energy change is        8.085971762056943E-003
   GDM::trust : predicted energy change was   -4.588269904507376E-002
   GDM::trust : updated trust radius is        0.108900000000000     
   GDM::search:  On step            1 .  The current bracket is:
       left   : x =  0.0000E+00, e =      -867.1180708894, g = -0.7536E-01
       current: x =  0.2595E+00, e =      -867.1099849176, g =  0.1319E+00
       right  : x =  0.1000E+04, e =      1000.0000000000, g =  0.1000E+04
       next   : x =  0.9181E-01
   GDM::      : max rotation in step is        3.748107851875199E-002
   ------- Leaving GDM -- hopefully with a step in the right direction! --------
 
   67    -867.1099849176      1.40E-01  Gap = -142.69 eV  Line search: overstep
 
   ------------------- Entering Geometric Direct Minimization ------------------
   GDM::trust : actual energy change is       -3.366909411283814E-003
   GDM::trust : predicted energy change was   -4.588269904507376E-002
   GDM::trust : updated trust radius is        0.108900000000000     
   GDM:         diagonal hessian shift is      0.000000000000000E+000
   GDM::PreWSS: input subspace size is                 19
   GDM::PreWSS: working subspace size set to           18
   GDM::PrEWSS: # of linearly dependent vectors =            0
   GDM::PrEWSS: Max dev from orthonormality =   7.751386719989650E-010
   GDM::BFGS:   lowest Hinv e-value    0.103682399024058     
   GDM::BFGS:   highest Hinv e-value    9.80100492727535     
   GDM::      : max scaling in EWCs is          2.82842712474619     
   GDM::      : max rotation in step is        0.102066704677876     
   GDM::        grad.step =  -1.959231949191750E-002
   ------- Leaving GDM -- hopefully with a step in the right direction! --------
 
   68    -867.1214377988      6.18E-02  Gap = -142.69 eV  Descent step
 
[...]
   GDM::BFGS:   highest Hinv e-value    17.2380408021247     
   GDM::      : max scaling in EWCs is          2.63977003322984     
   GDM::      : max rotation in step is        2.472509167441523E-007
   GDM::        grad.step =  -3.064219282207845E-014
   ------- Leaving GDM -- hopefully with a step in the right direction! --------
 
   34    -867.5631854632      3.78E-08  Gap = -159.64 eV  Normal BFGS step
 
   ------------------- Entering Geometric Direct Minimization ------------------
   GDM::trust : actual energy change is       -2.728484105318785E-012
   GDM::trust : predicted energy change was   -4.596328923311766E-014
   GDM::trust : updated trust radius is        0.330000000000000     
   GDM:         diagonal hessian shift is      0.000000000000000E+000
   GDM::PreWSS: input subspace size is                 19
   GDM::PreWSS: working subspace size set to           18
   GDM::PrEWSS: # of linearly dependent vectors =            6
   GDM::PrEWSS: Max dev from orthonormality =   2.199649906664547E-010
   GDM::BFGS:   lowest Hinv e-value    0.180651461271730     
   GDM::BFGS:   highest Hinv e-value    16.7759580159236     
   GDM::      : max scaling in EWCs is          2.63976958979963     
   GDM::      : max rotation in step is       -2.355708298650098E-007
   GDM::        grad.step =  -2.028190464284158E-014
   ------- Leaving GDM -- hopefully with a step in the right direction! --------
 
   35    -867.5631854632      3.64E-08  Gap = -159.64 eV  Normal BFGS step
 
   ------------------- Entering Geometric Direct Minimization ------------------
   GDM::trust : actual energy change is        1.705302565824240E-012
   GDM::trust : predicted energy change was   -3.042285696426237E-014
   GDM::trust : updated trust radius is        0.108900000000000     
   GDM::WARNING energy changes are now smaller than effective accuracy.
   GDM::        calculation will continue, but THRESH should be increased
   GDM::        or SCF_CONVERGENCE decreased.
   GDM::        effective_thresh =   5.661396768052995E-010
   GDM:         diagonal hessian shift is      0.000000000000000E+000
   GDM::PreWSS: input subspace size is                 19
   GDM::PreWSS: working subspace size set to           18
   GDM::PrEWSS: # of linearly dependent vectors =            6
   GDM::PrEWSS: Max dev from orthonormality =   6.695225970854146E-011
   GDM::BFGS:   lowest Hinv e-value    0.185304156934420     
   GDM::BFGS:   highest Hinv e-value    15.9161550062914     
   GDM::      : max scaling in EWCs is          2.63976995952278     
   GDM::      : max rotation in step is        4.229911458241454E-008
   GDM::        grad.step =  -4.073708628513710E-015
   ------- Leaving GDM -- hopefully with a step in the right direction! --------
 
   36    -867.5631854632      1.50E-08  Gap = -159.64 eV  Normal BFGS step
 
   ------------------- Entering Geometric Direct Minimization ------------------
   GDM::trust : actual energy change is       -3.410605131648481E-013
   GDM::trust : predicted energy change was   -6.110562942770568E-015
   GDM::trust : updated trust radius is        0.330000000000000     
   GDM:         diagonal hessian shift is      0.000000000000000E+000
   GDM::PreWSS: input subspace size is                 19
   GDM::PreWSS: working subspace size set to           18
   GDM::PrEWSS: # of linearly dependent vectors =            5
   GDM::PrEWSS: Max dev from orthonormality =   2.254638281629084E-010
   GDM::BFGS:   lowest Hinv e-value    0.182898664729600     
   GDM::BFGS:   highest Hinv e-value    13.2031923726416     
   GDM::      : max scaling in EWCs is          2.63976997106059     
   GDM::      : max rotation in step is        4.029894615464476E-008
   GDM::        grad.step =  -1.695275428365091E-015
   ------- Leaving GDM -- hopefully with a step in the right direction! --------
 
   37    -867.5631854632      1.19E-08  Gap = -159.64 eV  Normal BFGS step
 
   ------------------- Entering Geometric Direct Minimization ------------------
   GDM::trust : actual energy change is       -1.136868377216160E-013
   GDM::trust : predicted energy change was   -2.542913142547637E-015
   GDM::trust : updated trust radius is        0.330000000000000     
   GDM:         diagonal hessian shift is      0.000000000000000E+000
   GDM::PreWSS: input subspace size is                 19
   GDM::PreWSS: working subspace size set to           18
   GDM::PrEWSS: # of linearly dependent vectors =            5
   GDM::PrEWSS: Max dev from orthonormality =   1.223251729944030E-010
   GDM::BFGS:   lowest Hinv e-value    0.183421147691992     
   GDM::BFGS:   highest Hinv e-value    13.2427285323902     
   GDM::      : max scaling in EWCs is          2.63976987054830     
   GDM::      : max rotation in step is        4.334125874385228E-008
   GDM::        grad.step =  -1.243362161485942E-015
   ------- Leaving GDM -- hopefully with a step in the right direction! --------
 
   38    -867.5631854632      8.96E-09 Convergence criterion met
 ---------------------------------------
 One-Electron    Energy = -2168.7734659324
 Total Coulomb   Energy =   907.0414957509
 Alpha Exchange  Energy =    -7.9364604753
 Beta  Exchange  Energy =    -7.3831172530
 DFT   Exchange  Energy =   -61.2095468031
 DFT Correlation Energy =    -3.6396273815
 Nuclear Repu.   Energy =   474.3375366313
 Nuclear Attr.   Energy = -2986.7659158527
 Kinetic         Energy =   817.9924499203
 <S^2> = 6.0409
 SCF time:  CPU 350.74 s  wall 31.24 s
 SCF   energy in the final basis set = -867.5631854632
 Total energy in the final basis set = -867.5631854632
 
 --------------------------------------------------------------
 
                    Orbital Energies (a.u.)
 --------------------------------------------------------------
 
 Alpha MOs
 -- Occupied --
-88.935 -19.256 -19.254 -19.210 -19.202 -19.162  -8.010  -5.980
 -5.967  -5.966  -2.114  -2.071  -1.333  -1.323  -1.312  -1.294
 -1.278  -1.272  -0.999  -0.983  -0.953  -0.939  -0.884  -0.757
 -0.468  -0.462  -0.435  -0.424  -0.421  -0.418  -0.406  -0.404
 -0.393  -0.390  -0.375  -0.369  -0.366  -0.362  -0.350  -0.345
 -0.340  -0.331
 -- Virtual --
 -0.111  -0.095  -0.086  -0.076  -0.053  -0.046  -0.031  -0.028
 -0.020  -0.004   0.000   0.007   0.018   0.020   0.032   0.039
  0.042   0.059   0.064   0.072   0.091   0.093   0.121   0.138
  0.145   0.148   0.158   0.159   0.172   0.172   0.182   0.186
  0.203   0.207   0.216   0.218   0.223   0.228   0.235   0.240
  0.250   0.266   0.270   0.276   0.285   0.293   0.293   0.306
  0.325   0.336   0.349   0.373   0.393   0.409   0.495   0.501
  0.536   0.596   0.622   0.644   0.722   0.784   0.801   0.808
  0.855   0.891   0.982   1.053   1.084   1.096   1.127   1.131
  1.139   1.148   1.168   1.181   1.187   1.210   1.228   1.240
  1.254   1.320   1.598   1.644   1.657   1.677   1.682   1.695
  1.700   1.705   1.712   1.724   1.738   1.746   1.756   1.761
  1.765   1.774   1.783   1.788   1.795   1.814   1.826   1.830
  1.840   1.850   1.866   1.880   1.908   1.924   1.983   2.078
 14.269  16.052
 
 Beta MOs
 -- Occupied --
-88.930 -19.231 -19.229 -19.198 -19.187 -19.154  -8.005  -5.964
 -5.963  -5.963  -2.117  -2.075  -1.334  -1.324  -1.316  -1.296
 -1.280  -1.275  -0.944  -0.917  -0.908  -0.878  -0.861  -0.715
 -0.429  -0.412  -0.407  -0.394  -0.381  -0.365  -0.364  -0.356
 -0.351  -0.345  -0.339  -0.332  -0.319  -0.315
 -- Virtual --
 -0.243  -0.240  -0.229  -0.197  -0.111  -0.087  -0.083  -0.070
 -0.046  -0.042  -0.023  -0.010  -0.008   0.002   0.003   0.012
  0.021   0.031   0.034   0.041   0.043   0.061   0.070   0.076
  0.095   0.095   0.125   0.143   0.148   0.156   0.165   0.166
  0.176   0.176   0.185   0.192   0.212   0.215   0.221   0.225
  0.227   0.231   0.239   0.246   0.253   0.271   0.275   0.280
  0.289   0.295   0.296   0.309   0.327   0.339   0.353   0.379
  0.397   0.414   0.508   0.525   0.544   0.605   0.640   0.660
  0.746   0.815   0.825   0.841   0.867   0.911   0.995   1.110
  1.123   1.134   1.149   1.158   1.171   1.177   1.190   1.198
  1.205   1.227   1.245   1.264   1.267   1.329   1.623   1.676
  1.682   1.703   1.721   1.731   1.745   1.751   1.754   1.762
  1.766   1.787   1.790   1.796   1.800   1.804   1.812   1.818
  1.830   1.842   1.849   1.852   1.868   1.873   1.894   1.898
  1.931   1.939   2.002   2.090  14.270  16.053
 --------------------------------------------------------------
 
          Ground-State Mulliken Net Atomic Charges

     Atom                 Charge (a.u.)    Spin (a.u.)
  --------------------------------------------------------
      1 Zr                    1.381265      -0.192723
      2 O                    -0.518993       0.314579
      3 O                    -0.537643       0.913262
      4 S                     0.016321       0.977716
      5 O                    -0.802430       0.130918
      6 Zr                    1.410488      -0.153612
      7 O                    -0.474058       1.004310
      8 O                    -0.474951       1.005550
  --------------------------------------------------------
  Sum of atomic charges =     0.000000
  Sum of spin   charges =     4.000000

 -----------------------------------------------------------------
                    Cartesian Multipole Moments
 -----------------------------------------------------------------
    Charge (ESU x 10^10)
                 0.0000
    Dipole Moment (Debye)
         X       3.3135      Y       0.6728      Z       1.2640
       Tot       3.6096
    Quadrupole Moments (Debye-Ang)
        XX     -99.8864     XY       0.0796     YY     -84.0601
        XZ      -1.4861     YZ       0.1121     ZZ     -98.2030
    Octopole Moments (Debye-Ang^2)
       XXX      39.0728    XXY       1.3627    XYY      -0.4073
       YYY     -24.2390    XXZ      -9.3699    XYZ      -3.3167
       YYZ      -2.4353    XZZ       2.3227    YZZ      -2.3725
       ZZZ       4.3268
    Hexadecapole Moments (Debye-Ang^3)
      XXXX   -2050.0353   XXXY       3.4112   XXYY    -365.3103
      XYYY      -4.0631   YYYY    -475.7795   XXXZ      60.2429
      XXYZ       2.3768   XYYZ      12.7605   YYYZ      -0.6981
      XXZZ    -547.9581   XYZZ      -3.6994   YYZZ    -152.8288
      XZZZ      41.7616   YZZZ      -1.6044   ZZZZ    -526.6714
 -----------------------------------------------------------------
 Calculating analytic gradient of the SCF energy
 Gradient of SCF Energy
            1           2           3           4           5           6
    1   0.0000431   0.0000255   0.0000007   0.0000038  -0.0000317  -0.0000569
    2  -0.0000134   0.0000213  -0.0000375   0.0000125   0.0000393  -0.0000483
    3  -0.0000498   0.0000386   0.0000384   0.0000028  -0.0000061  -0.0000307
            7           8
    1  -0.0000115   0.0000270
    2   0.0000187   0.0000075
    3   0.0000164  -0.0000097
 Max gradient component =       5.689E-05
 RMS gradient           =       2.951E-05
 Gradient time:  CPU 33.92 s  wall 4.48 s
 Geometry Optimization Parameters
   NAtoms,    NIC,     NZ,  NCons,   NDum,   NFix, NCnnct, MaxDiis
        8      73       0       0       0       0       0       0

 Cartesian Hessian Update
 Hessian Updated using BFGS Update


** GEOMETRY OPTIMIZATION IN DELOCALIZED INTERNAL COORDINATES **
   Searching for a Minimum

   Optimization Cycle:  37

                       Coordinates (Angstroms)
     ATOM                X               Y               Z
      1  Zr       -1.6985362487   -0.1692221658    0.1074974606
      2  O        -2.4395465548   -0.1189026112   -1.5287106285
      3  O        -3.1030641273   -0.3159220415    1.4976829133
      4  S         0.0516763079    1.8976432254    0.0452890968
      5  O         0.1280272122   -1.2560904385    0.1277244282
      6  Zr        1.6697210261   -0.1791642063   -0.0463588494
      7  O         2.7899510650   -0.1363661245    1.6100790563
      8  O         2.6018613196   -0.2979556377   -1.8127534774
   Point Group: c1    Number of degrees of freedom:    18


   Energy is   -867.563185463

 Hessian Updated using BFGS Update

 18 Hessian modes will be used to form the next step
  Hessian Eigenvalues:
     0.001984    0.004694    0.012973    0.019871    0.028742    0.035669
     0.045132    0.056785    0.066875    0.115087    0.120072    0.148306
     0.171450    0.183306    0.217803    0.270039    0.353824    0.579743

 Minimum Search - Taking Simple RFO Step
 Searching for Lamda that Minimizes Along All modes
 Value Taken    Lamda =   0.00000000
 Step Taken.  Stepsize is  0.003486

                             Maximum     Tolerance    Cnvgd?
         Gradient           0.000059      0.000300     YES
         Displacement       0.002002      0.001200      NO
         Energy change      0.000000      0.000001     YES


                       Distance Matrix (Angstroms)
             Zr(  1)   O (  2)   O (  3)   S (  4)   O (  5)   Zr(  6)
   O (  2)  1.796888
   O (  3)  1.981624  3.104534
   S (  4)  2.709067  3.570732  4.118459
   O (  5)  2.125565  3.260277  3.633270  3.155735
   Zr(  6)  3.371784  4.368876  5.018191  2.634312  1.888622
   O (  7)  4.733429  6.099176  5.896821  3.752854  3.246074  2.000133
   O (  8)  4.711407  5.052577  6.595869  3.844011  3.286842  2.000787
             O (  7)
   O (  8)  3.431803
 
 Final energy is   -867.563185463213     


 ******************************
 **  OPTIMIZATION CONVERGED  **
 ******************************

                       Coordinates (Angstroms)
     ATOM                X               Y               Z
      1  Zr       -1.6985362487   -0.1692221658    0.1074974606
      2  O        -2.4395465548   -0.1189026112   -1.5287106285
      3  O        -3.1030641273   -0.3159220415    1.4976829133
      4  S         0.0516763079    1.8976432254    0.0452890968
      5  O         0.1280272122   -1.2560904385    0.1277244282
      6  Zr        1.6697210261   -0.1791642063   -0.0463588494
      7  O         2.7899510650   -0.1363661245    1.6100790563
      8  O         2.6018613196   -0.2979556377   -1.8127534774

Z-matrix Print:
$molecule
0 5
Zr
O  1 1.888622
O  1 2.000133 2 113.145053
O  1 2.000787 2 115.329771 3 -140.320240 0
Zr 2 2.125565 1 114.143880 3 -112.231103 0
O  5 1.796888 2 112.170240 1 -95.594404 0
O  5 1.981624 2 124.370586 1 127.119608 0
S  1 2.634312 2 86.843930 3 107.539633 0
$end

 
 --------------------------------------------------------------
 
                    Orbital Energies (a.u.)
 --------------------------------------------------------------
 
 Alpha MOs
 -- Occupied --
-88.935 -19.256 -19.254 -19.210 -19.202 -19.162  -8.010  -5.980
 -5.967  -5.966  -2.114  -2.071  -1.333  -1.323  -1.312  -1.294
 -1.278  -1.272  -0.999  -0.983  -0.953  -0.939  -0.884  -0.757
 -0.468  -0.462  -0.435  -0.424  -0.421  -0.418  -0.406  -0.404
 -0.393  -0.390  -0.375  -0.369  -0.366  -0.362  -0.350  -0.345
 -0.340  -0.331
 -- Virtual --
 -0.111  -0.095  -0.086  -0.076  -0.053  -0.046  -0.031  -0.028
 -0.020  -0.004   0.000   0.007   0.018   0.020   0.032   0.039
  0.042   0.059   0.064   0.072   0.091   0.093   0.121   0.138
  0.145   0.148   0.158   0.159   0.172   0.172   0.182   0.186
  0.203   0.207   0.216   0.218   0.223   0.228   0.235   0.240
  0.250   0.266   0.270   0.276   0.285   0.293   0.293   0.306
  0.325   0.336   0.349   0.373   0.393   0.409   0.495   0.501
  0.536   0.596   0.622   0.644   0.722   0.784   0.801   0.808
  0.855   0.891   0.982   1.053   1.084   1.096   1.127   1.131
  1.139   1.148   1.168   1.181   1.187   1.210   1.228   1.240
  1.254   1.320   1.598   1.644   1.657   1.677   1.682   1.695
  1.700   1.705   1.712   1.724   1.738   1.746   1.756   1.761
  1.765   1.774   1.783   1.788   1.795   1.814   1.826   1.830
  1.840   1.850   1.866   1.880   1.908   1.924   1.983   2.078
 14.269  16.052
 
 Beta MOs
 -- Occupied --
-88.930 -19.231 -19.229 -19.198 -19.187 -19.154  -8.005  -5.964
 -5.963  -5.963  -2.117  -2.075  -1.334  -1.324  -1.316  -1.296
 -1.280  -1.275  -0.944  -0.917  -0.908  -0.878  -0.861  -0.715
 -0.429  -0.412  -0.407  -0.394  -0.381  -0.365  -0.364  -0.356
 -0.351  -0.345  -0.339  -0.332  -0.319  -0.315
 -- Virtual --
 -0.243  -0.240  -0.229  -0.197  -0.111  -0.087  -0.083  -0.070
 -0.046  -0.042  -0.023  -0.010  -0.008   0.002   0.003   0.012
  0.021   0.031   0.034   0.041   0.043   0.061   0.070   0.076
  0.095   0.095   0.125   0.143   0.148   0.156   0.165   0.166
  0.176   0.176   0.185   0.192   0.212   0.215   0.221   0.225
  0.227   0.231   0.239   0.246   0.253   0.271   0.275   0.280
  0.289   0.295   0.296   0.309   0.327   0.339   0.353   0.379
  0.397   0.414   0.508   0.525   0.544   0.605   0.640   0.660
  0.746   0.815   0.825   0.841   0.867   0.911   0.995   1.110
  1.123   1.134   1.149   1.158   1.171   1.177   1.190   1.198
  1.205   1.227   1.245   1.264   1.267   1.329   1.623   1.676
  1.682   1.703   1.721   1.731   1.745   1.751   1.754   1.762
  1.766   1.787   1.790   1.796   1.800   1.804   1.812   1.818
  1.830   1.842   1.849   1.852   1.868   1.873   1.894   1.898
  1.931   1.939   2.002   2.090  14.270  16.053
 --------------------------------------------------------------
 
          Ground-State Mulliken Net Atomic Charges

     Atom                 Charge (a.u.)    Spin (a.u.)
  --------------------------------------------------------
      1 Zr                    1.381265      -0.192723
      2 O                    -0.518993       0.314579
      3 O                    -0.537643       0.913262
      4 S                     0.016321       0.977716
      5 O                    -0.802430       0.130918
      6 Zr                    1.410488      -0.153612
      7 O                    -0.474058       1.004310
      8 O                    -0.474951       1.005550
  --------------------------------------------------------
  Sum of atomic charges =     0.000000
  Sum of spin   charges =     4.000000

 -----------------------------------------------------------------
                    Cartesian Multipole Moments
 -----------------------------------------------------------------
    Charge (ESU x 10^10)
                 0.0000
    Dipole Moment (Debye)
         X       3.3135      Y       0.6728      Z       1.2640
       Tot       3.6096
    Quadrupole Moments (Debye-Ang)
        XX     -99.8864     XY       0.0796     YY     -84.0601
        XZ      -1.4861     YZ       0.1121     ZZ     -98.2030
    Octopole Moments (Debye-Ang^2)
       XXX      39.0728    XXY       1.3627    XYY      -0.4073
       YYY     -24.2390    XXZ      -9.3699    XYZ      -3.3167
       YYZ      -2.4353    XZZ       2.3227    YZZ      -2.3725
       ZZZ       4.3268
    Hexadecapole Moments (Debye-Ang^3)
      XXXX   -2050.0353   XXXY       3.4112   XXYY    -365.3103
      XYYY      -4.0631   YYYY    -475.7795   XXXZ      60.2429
      XXYZ       2.3768   XYYZ      12.7605   YYYZ      -0.6981
      XXZZ    -547.9581   XYZZ      -3.6994   YYZZ    -152.8288
      XZZZ      41.7616   YZZZ      -1.6044   ZZZZ    -526.6714
 -----------------------------------------------------------------
Archival summary:
1\1\hpc3923\OPT\ProcedureUnspecified\BasisUnspecified\r215(+,5)\liqiuy\FriJan1719:38:052020FriJan1719:38:052020\0\\#,OPT,ProcedureUnspecified,BasisUnspecified,\\56,5\Zr\O,1,1.88862\O,1,2.00013,2,113.145\O,1,2.00079,2,115.33,3,-140.32,0\Zr,2,2.12556,1,114.144,3,-112.231,0\O,5,1.79689,2,112.17,1,-95.5944,0\O,5,1.98162,2,124.371,1,127.12,0\S,1,2.63431,2,86.8439,3,107.54,0\\\@

 Total job time:  1636.60s(wall), 16387.95s(cpu) 
 Fri Jan 17 19:38:05 2020

        *************************************************************
        *                                                           *
        *  Thank you very much for using Q-Chem.  Have a nice day.  *
        *                                                           *
        *************************************************************


0 sent ACK to 0 
now end server 0 ... 
cleanup process ... done
