
Running Job 1 of 2 ZrOx.in
qchem ZrOx.in_43896.0 /tmp/5732586.priya/ZrOx.save/ 1
/usr/usc/qchem/4.4/bin/mpi/mpirun_qchem -machinefile /usr/usc/qchem/4.4/bin/mpi/machines -np 1 /usr/usc/qchem/4.4/exe/qcprog.exe ZrOx.in_43896.0 /tmp/5732586.priya/ZrOx.save/

Process 0 of 1 is on hpc3454.hpcc.usc.edu - thread support 0
initial socket setup ...start
initial socket setup ...done 
now start server 0 ... 
Check license passed

                  Welcome to Q-Chem
     A Quantum Leap Into The Future Of Chemistry


 Q-Chem 4.4, Q-Chem, Inc., Pleasanton, CA (2016)

 Y. Shao,  Z. Gan,  E. Epifanovsky,  A. T. B. Gilbert,  M. Wormit,  
 J. Kussmann,  A. W. Lange,  A. Behn,  J. Deng,  X. Feng,  D. Ghosh,  
 M. Goldey,  P. R. Horn,  L. D. Jacobson,  I. Kaliman,  F.Rob,  
 R. Z. Khaliullin,  T. Kus,  A. Landau,  J. Liu,  E. I. Proynov,  Y. M. Rhee,  
 R. M. Richard,  M. A. Rohrdanz,  R. P. Steele,  E. J. Sundstrom,  
 H. L. Woodcock III,  P. M. Zimmerman,  D. Zuev,  B. Albrecht,  E. Alguire,  
 B. Austin,  S. A. Baeppler,  G. J. O. Beran,  Y. A. Bernard,  E. Berquist,  
 K. Brandhorst,  K. B. Bravaya,  S. T. Brown,  D. Casanova,  C.-M. Chang,  
 Y. Chen,  S. H. Chien,  K. D. Closser,  M. P. Coons,  D. L. Crittenden,  
 S. Dasgupta,  M. Diedenhofen,  R. A. DiStasio Jr.,  H. Do,  A. D. Dutoi,  
 R. G. Edgar,  P.-T. Fang,  S. Fatehi,  Q. Feng,  L. Fusti-Molnar,  
 A. Ghysels,  A. Golubeva-Zadorozhnaya,  J. Gomes,  A. Gunina,  
 M. W. D. Hanson-Heine,  P. H. P. Harbach,  A. W. Hauser,  E. G. Hohenstein,  
 Z. C. Holden,  K. Hui,  T.-C. Jagau,  H. Ji,  B. Kaduk,  K. Khistyaev,  
 Jaehoon Kim,  Jihan Kim,  R. A. King,  P. Klunzinger,  D. Kosenkov,  
 T. Kowalczyk,  C. M. Krauter,  A. Kunitsa,  K. U. Lao,  A. Laurent,  
 K. V. Lawler,  D. Lefrancois,  S. Lehtola,  S. V. Levchenko,  C. Y. Lin,  
 Y.-S. Lin,  F. Liu,  E. Livshits,  R. C. Lochan,  A. Luenser,  P. Manohar,  
 S. F. Manzer,  S.-P. Mao,  Y. Mao,  N. Mardirossian,  A. V. Marenich,  
 L. A. Martinez-Martinez,  S. A. Maurer,  N. J. Mayhall,  J.-M. Mewes,  
 A. F. Morrison,  K. Nanda,  C. M. Oana,  R. Olivares-Amaya,  D. P. O'Neill,  
 J. A. Parkhill,  T. M. Perrine,  R. Peverati,  P. A. Pieniazek,  F. Plasser,  
 A. Prociuk,  D. R. Rehn,  E. Rosta,  N. J. Russ,  N. Sergueev,  
 S. M. Sharada,  S. Sharma,  D. W. Small,  A. Sodt,  T. Stauch,  T. Stein,  
 D. Stuck,  Y.-C. Su,  A. J. W. Thom,  T. Tsuchimochi,  L. Vogt,  O. Vydrov,  
 T. Wang,  M. A. Watson,  J. Wenzel,  A. White,  C. F. Williams,  
 V. Vanovschi,  S. Yeganeh,  S. R. Yost,  Z.-Q. You,  I. Y. Zhang,  X. Zhang,  
 Y. Zhao,  B. R. Brooks,  G. K. L. Chan,  D. M. Chipman,  C. J. Cramer,  
 W. A. Goddard III,  M. S. Gordon,  W. J. Hehre,  A. Klamt,  
 H. F. Schaefer III,  M. W. Schmidt,  C. D. Sherrill,  D. G. Truhlar,  
 A. Warshel,  X. Xu,  A. Aspuru-Guzik,  R. Baer,  A. T. Bell,  N. A. Besley,  
 J.-D. Chai,  A. Dreuw,  B. D. Dunietz,  T. R. Furlani,  S. R. Gwaltney,  
 C.-P. Hsu,  Y. Jung,  J. Kong,  D. S. Lambrecht,  W. Liang,  C. Ochsenfeld,  
 V. A. Rassolov,  L. V. Slipchenko,  J. E. Subotnik,  T. Van Voorhis,  
 J. M. Herbert,  A. I. Krylov,  P. M. W. Gill,  M. Head-Gordon

 Contributors to earlier versions of Q-Chem not listed above: 
 R. D. Adamson,  J. Baker,  E. F. C. Byrd,  A. K. Chakraborty,  C.-L. Cheng,  
 H. Dachsel,  R. J. Doerksen,  G. Hawkins,  A. Heyden,  S. Hirata,  
 G. Kedziora,  F. J. Keil,  C. Kelley,  P. P. Korambath,  W. Kurlancheek,  
 A. M. Lee,  M. S. Lee,  D. Liotard,  I. Lotan,  P. E. Maslen,  N. Nair,  
 D. Neuhauser,  R. Olson,  B. Peters,  J. Ritchie,  N. E. Schultz,  
 N. Shenvi,  A. C. Simmonett,  K. S. Thanthiriwatte,  Q. Wu,  W. Zhang

 Please cite Q-Chem as follows:
 Y. Shao et al., Mol. Phys. 113, 184-215 (2015)
 DOI: 10.1080/00268976.2014.952696

 Q-Chem 4.4.1 for Intel X86 Linux

 Parts of Q-Chem use Armadillo 5.200.1 (Boston Tea Smuggler).
 http://arma.sourceforge.net/

 Q-Chem begins on Fri Jan 17 19:14:33 2020  

Host: 
0

     Scratch files written to /tmp/5732586.priya/ZrOx.save//
 Jul2716 11668_ 21447  21445 5558   
 Parallel job on  1  processors
Processing $rem in /usr/usc/qchem/4.4/config/preferences.
 MEM_TOTAL  2000 

Checking the input file for inconsistencies... 	...done.

--------------------------------------------------------------
User input:
--------------------------------------------------------------
$comment
--------------------------------------------------------
A SINGLE POINT DFT CALCULATION WITH BASIS SET PROJECTION
--------------------------------------------------------
$end

$molecule
0 3
Zr -0.00014 -0.25703 0.00000
O -0.00257 -1.96774 0.00000
S 1.86756 0.82746 0.00000
S -1.86611 0.82988 0.00000
$end

$rem
JOBTYPE   SP
METHOD   B3LYP
BASIS   GEN
ECP   GEN
MAX_SCF_CYCLES   200
SCF_CONVERGENCE 8
SCF_ALGORITHM  DIIS_GDM
SCF_PRINT 1
PDB_PRINT 2
THRESH 14
VARTHRESH 14
INCDFT FALSE
SYMMETRY False
Sym_ignore True
SCF_ALGORITHM GDM
XC_GRID 000128000302
DFT_D           EMPIRICAL_GRIMME3
DFT_D3_S6       1000
DFT_D3_RS6     1261
DFT_D3_S8      1703
DFT_D3_3BODY    FALSE
$end

$basis
O
6-31+G**
****
S
6-31+G**
****
Zr
LanL2DZ
****
$end

$ecp
Zr
LanL2DZ
****
$end

--------------------------------------------------------------
 ----------------------------------------------------------------
             Standard Nuclear Orientation (Angstroms)
    I     Atom           X                Y                Z
 ----------------------------------------------------------------
    1      Zr     -0.0001400000    -0.2570300000     0.0000000000
    2      O      -0.0025700000    -1.9677400000     0.0000000000
    3      S       1.8675600000     0.8274600000     0.0000000000
    4      S      -1.8661100000     0.8298800000     0.0000000000
 ----------------------------------------------------------------
 Nuclear Repulsion Energy =   200.3615837826 hartrees
 There are       27 alpha and       25 beta electrons

 Q-Chem warning in module /home/scratch/svnadmin/11668_zgan/qchem/forms1/BasisType.C, line 1419:

 Setting pure/cartesian flag to 2111 for general basis


 Requested basis set is non-standard
 There are 25 shells and 84 basis functions

 Total QAlloc Memory Limit   2000 MB
 Mega-Array Size        61 MB
 MEM_STATIC part        62 MB

                       Distance Matrix (Angstroms)
             Zr(  1)   O (  2)   S (  3)
   O (  2)  1.710712
   S (  3)  2.159727  3.363113
   S (  4)  2.159448  3.361467  3.733671
 
 A cutoff of  1.0D-14 yielded    315 shell pairs
 There are      3652 function pairs (      4112 Cartesian)
 
 -------------------------------------------------------
 OpenMP Integral Computing Module                       
 Release: version 1.0, May 2013, Q-Chem Inc. Pittsburgh 
 -------------------------------------------------------
 Integral Job Info:
 Integral job number is                      11
 Integral operator is                         1
 short-range coefficients                     0
 long-range coefficients              100000000
 Omega coefficients                           0
 if combine SR and LR in K                    0
 Integral screening is                        0
 Integral computing path is                   2
 max size of driver memory is            800000
 size of driver memory is                593474
 size of scratch memory is             15166112
 max col of scratch BK array               1296
 max len of scratch array in speh3          155
 max len of scratch index in speh4           18
 max int batch size is                      520
 min int batch size is                       52
 fixed nKL is                                52
 max L of basis functions is                  2
 order of int derivative is                   0
 number of shells is                         25
 number of basis is                          89
 number of cartesian basis is                89
 number of contracted shell pairs           315
 number of primitive shell pairs           1830
 maxK2 (contraction) of shell pair           36
 max number of K2 of shell pair               1
 max number of CS2 of shell pair             24
 max number of PS2 of shell pair            144
 mem total for path MDJ                   17464
 -------------------------------------------------------
 Requested basis set is non-standard
 Compound shells will be simplified
 There are 36 shells and 84 basis functions
 A cutoff of  1.0D-14 yielded    647 shell pairs
 There are      3619 function pairs (      4079 Cartesian)
 Smallest overlap matrix eigenvalue = 1.29E-03

 Scale SEOQF with 1.000000e-01/1.000000e-01/1.000000e-01

 Standard Electronic Orientation quadrupole field applied
 Nucleus-field energy     =     0.0000000078 hartrees
 Guess MOs from core Hamiltonian diagonalization
 An unrestricted hybrid HF-DFT SCF calculation will be
 performed using Geometric Direct Minimization
 Exchange:     0.2000 Hartree-Fock + 0.0800 Slater + 0.7200 B88
 Correlation:  0.1900 VWN1RPA + 0.8100 LYP
 Using Euler-Maclaurin-Lebedev (128,302) quadrature formula
 Dispersion:   Grimme D3
 SCF converges when RMS gradient is below 1.0E-08
 Maximum number of minimization steps = 200
 using 12 threads for integral computing 
 -------------------------------------------------------
 OpenMP BLAS3 based DFT computing Module                
 Release: version 1.0, May 2013, Q-Chem Inc. Pittsburgh 
 -------------------------------------------------------
 
   ------------------- Entering Geometric Direct Minimization ------------------
   GDM:         diagonal hessian shift is      0.000000000000000E+000
   GDM::PreWSS: input subspace size is                  1
   GDM::PreWSS: working subspace size set to            1
   GDM::PrEWSS: # of linearly dependent vectors =            0
   GDM::PrEWSS: Max dev from orthonormality =   0.000000000000000E+000
   GDM::BFGS:   lowest Hinv e-value     1.00000000000000     
   GDM::BFGS:   highest Hinv e-value    1.00000000000000     
   GDM::      : max scaling in EWCs is          1.41421356237309     
   GDM::      : max rotation in step is       -8.022692254326598E-002
   GDM::        grad.step =   -2.01816187732521     
   ------- Leaving GDM -- hopefully with a step in the right direction! --------
 
 ---------------------------------------
  Cycle       Energy        RMS Gradient
 ---------------------------------------
    1    -904.0738339652      1.05E+00  Gap = 0.00 eV  Descent step
 
   ------------------- Entering Geometric Direct Minimization ------------------
   GDM::trust : actual energy change is        -1.96431563467490     
   GDM::trust : predicted energy change was   -0.163350000000000     
   GDM::trust : updated trust radius is        0.330000000000000     
   GDM::search:  On step            1 .  The current bracket is:
       left   : x =  0.0000E+00, e =      -904.0738339652, g = -0.5267E+01
       current: x =  0.3832E+00, e =      -906.0381495999, g = -0.4943E+01
       right  : x =  0.1000E+04, e =      1000.0000000000, g =  0.1000E+04
       next   : x =  0.3832E+01
   GDM::      : max rotation in step is       -0.802269225432660     
   ------- Leaving GDM -- hopefully with a step in the right direction! --------
 
    2    -906.0381495999      3.02E-01  Gap = -191.99 eV  Line search: understep
 
   ------------------- Entering Geometric Direct Minimization ------------------
   GDM::trust : actual energy change is        -4.44079676389413     
   GDM::trust : predicted energy change was   -0.163350000000000     
   GDM::trust : updated trust radius is        0.330000000000000     
   GDM:         diagonal hessian shift is      0.000000000000000E+000
   GDM::PreWSS: input subspace size is                  2
   GDM::PreWSS: working subspace size set to            2
   GDM::PrEWSS: # of linearly dependent vectors =            0
   GDM::PrEWSS: Max dev from orthonormality =   2.220446049250313E-016
   GDM::BFGS:   lowest Hinv e-value    0.213741382253498     
   GDM::BFGS:   highest Hinv e-value    2.26678549705418     
   GDM::      : max scaling in EWCs is          2.82842712474619     
   GDM::      : max rotation in step is        0.211261702622666     
   GDM::        grad.step =   -2.67548410534644     
   ------- Leaving GDM -- hopefully with a step in the right direction! --------
 
    3    -908.5146307291      2.12E+00  Gap = -191.99 eV  Descent step
 
   ------------------- Entering Geometric Direct Minimization ------------------
   GDM::trust : actual energy change is        -2.52456614139362     
   GDM::trust : predicted energy change was   -0.300523617607829     
   GDM::trust : updated trust radius is        0.330000000000000     
   GDM:         diagonal hessian shift is      0.000000000000000E+000
   GDM::PreWSS: input subspace size is                  3
   GDM::PreWSS: working subspace size set to            3
   GDM::PrEWSS: # of linearly dependent vectors =            0
   GDM::PrEWSS: Max dev from orthonormality =   4.010680676458378E-015
   GDM::BFGS:   lowest Hinv e-value    0.408904943888351     
   GDM::BFGS:   highest Hinv e-value    2.34485953979840     
   GDM::      : max scaling in EWCs is          2.82842712474619     
   GDM::      : max rotation in step is        0.196174968731431     
   GDM::        grad.step =   -1.67307435520398     
   ------- Leaving GDM -- hopefully with a step in the right direction! --------
 
    4    -911.0391968705      1.29E+00  Gap = -191.99 eV  Descent step
 
   ------------------- Entering Geometric Direct Minimization ------------------
   GDM::trust : actual energy change is        -1.58767502005287     
   GDM::trust : predicted energy change was   -0.168964156145043     
   GDM::trust : updated trust radius is        0.330000000000000     
   GDM:         diagonal hessian shift is      0.000000000000000E+000
   GDM::PreWSS: input subspace size is                  4
   GDM::PreWSS: working subspace size set to            4
   GDM::PrEWSS: # of linearly dependent vectors =            0
   GDM::PrEWSS: Max dev from orthonormality =   3.113481694683173E-014
   GDM::BFGS:   lowest Hinv e-value    0.345992672889037     
   GDM::BFGS:   highest Hinv e-value    2.09585226225219     
   GDM::      : max scaling in EWCs is          2.82842712474619     
   GDM::      : max rotation in step is        0.196608803120849     
   GDM::        grad.step =   -1.36641332630499     
   ------- Leaving GDM -- hopefully with a step in the right direction! --------
 
    5    -912.6268718906      9.32E-01  Gap = -191.99 eV  Descent step
 
   ------------------- Entering Geometric Direct Minimization ------------------
   GDM::trust : actual energy change is        -1.26729671805549     
   GDM::trust : predicted energy change was   -0.170295805187416     
   GDM::trust : updated trust radius is        0.330000000000000     
   GDM:         diagonal hessian shift is      0.000000000000000E+000
   GDM::PreWSS: input subspace size is                  5
   GDM::PreWSS: working subspace size set to            5
   GDM::PrEWSS: # of linearly dependent vectors =            0
   GDM::PrEWSS: Max dev from orthonormality =   9.128843514449869E-013
   GDM::BFGS:   lowest Hinv e-value    0.308658711359045     
   GDM::BFGS:   highest Hinv e-value    2.32883209575030     
   GDM::      : max scaling in EWCs is          2.82842712474619     
   GDM::      : max rotation in step is        0.128794116120597     
   GDM::        grad.step =   -1.06425969256635     
   ------- Leaving GDM -- hopefully with a step in the right direction! --------
 
    6    -913.8941686086      5.19E-01  Gap = -191.99 eV  Descent step
 
   ------------------- Entering Geometric Direct Minimization ------------------
   GDM::trust : actual energy change is       -0.969699264738210     
   GDM::trust : predicted energy change was   -0.186220210818974     
   GDM::trust : updated trust radius is        0.330000000000000     
   GDM:         diagonal hessian shift is      0.000000000000000E+000
   GDM::PreWSS: input subspace size is                  6
   GDM::PreWSS: working subspace size set to            6
   GDM::PrEWSS: # of linearly dependent vectors =            0
   GDM::PrEWSS: Max dev from orthonormality =   5.735169283926922E-013
   GDM::BFGS:   lowest Hinv e-value    0.290862961580173     
   GDM::BFGS:   highest Hinv e-value    2.61406993370818     
   GDM::      : max scaling in EWCs is          2.82842712474619     
   GDM::      : max rotation in step is       -0.230163157860447     
   GDM::        grad.step =  -0.923684272909959     
   ------- Leaving GDM -- hopefully with a step in the right direction! --------
 
    7    -914.8638678734      6.90E-01  Gap = -191.99 eV  Descent step
 
   ------------------- Entering Geometric Direct Minimization ------------------
   GDM::trust : actual energy change is       -0.775000840445045     
   GDM::trust : predicted energy change was   -0.202013334598046     
   GDM::trust : updated trust radius is        0.330000000000000     
   GDM:         diagonal hessian shift is      0.000000000000000E+000
   GDM::PreWSS: input subspace size is                  7
   GDM::PreWSS: working subspace size set to            7
   GDM::PrEWSS: # of linearly dependent vectors =            0
   GDM::PrEWSS: Max dev from orthonormality =   1.144216665860398E-012
   GDM::BFGS:   lowest Hinv e-value    0.247526239129304     
   GDM::BFGS:   highest Hinv e-value    2.75446294949577     
   GDM::      : max scaling in EWCs is          2.82842712474619     
   GDM::      : max rotation in step is       -0.220158680162171     
   GDM::        grad.step =  -0.656229740844668     
   ------- Leaving GDM -- hopefully with a step in the right direction! --------
 
    8    -915.6388687138      4.93E-01  Gap = -191.99 eV  Descent step
 
   ------------------- Entering Geometric Direct Minimization ------------------
   GDM::trust : actual energy change is       -0.572805580574595     
   GDM::trust : predicted energy change was   -0.171583373435369     
   GDM::trust : updated trust radius is        0.330000000000000     
   GDM:         diagonal hessian shift is      0.000000000000000E+000
   GDM::PreWSS: input subspace size is                  8
   GDM::PreWSS: working subspace size set to            8
   GDM::PrEWSS: # of linearly dependent vectors =            0
   GDM::PrEWSS: Max dev from orthonormality =   2.221237083155359E-012
   GDM::BFGS:   lowest Hinv e-value    0.266154077979154     
   GDM::BFGS:   highest Hinv e-value    2.58415080773956     
   GDM::      : max scaling in EWCs is          2.82842712474619     
   GDM::      : max rotation in step is       -6.354085972140812E-002
   GDM::        grad.step =  -0.481508608669016     
   ------- Leaving GDM -- hopefully with a step in the right direction! --------
 
    9    -916.2116742944      3.74E-01  Gap = -191.99 eV  Descent step
 
   ------------------- Entering Geometric Direct Minimization ------------------
   GDM::trust : actual energy change is       -0.422779422191638     
   GDM::trust : predicted energy change was   -0.147278318757050     
   GDM::trust : updated trust radius is        0.330000000000000     
   GDM:         diagonal hessian shift is      0.000000000000000E+000
   GDM::PreWSS: input subspace size is                  9
   GDM::PreWSS: working subspace size set to            9
   GDM::PrEWSS: # of linearly dependent vectors =            0
   GDM::PrEWSS: Max dev from orthonormality =   2.984841540598637E-012
   GDM::BFGS:   lowest Hinv e-value    0.279054901936771     
   GDM::BFGS:   highest Hinv e-value    2.50940861675209     
   GDM::      : max scaling in EWCs is          2.82842712474619     
   GDM::      : max rotation in step is       -5.223660128171968E-002
   GDM::        grad.step =  -0.362036167267134     
   ------- Leaving GDM -- hopefully with a step in the right direction! --------
 
   10    -916.6344537166      2.58E-01  Gap = -191.99 eV  Descent step
 
   ------------------- Entering Geometric Direct Minimization ------------------
   GDM::trust : actual energy change is       -0.314523319291993     
   GDM::trust : predicted energy change was   -0.152206827931748     
   GDM::trust : updated trust radius is        0.330000000000000     
   GDM:         diagonal hessian shift is      0.000000000000000E+000
   GDM::PreWSS: input subspace size is                 10
   GDM::PreWSS: working subspace size set to           10
   GDM::PrEWSS: # of linearly dependent vectors =            0
   GDM::PrEWSS: Max dev from orthonormality =   1.646408703814828E-012
   GDM::BFGS:   lowest Hinv e-value    0.273678155480735     
   GDM::BFGS:   highest Hinv e-value    2.54535812367993     
   GDM::      : max scaling in EWCs is          2.82842712474619     
   GDM::      : max rotation in step is        8.837172028715866E-002
   GDM::        grad.step =  -0.274037457074855     
   ------- Leaving GDM -- hopefully with a step in the right direction! --------
 
   11    -916.9489770359      2.52E-01  Gap = -191.99 eV  Descent step
 
   ------------------- Entering Geometric Direct Minimization ------------------
   GDM::trust : actual energy change is       -0.245265839580156     
   GDM::trust : predicted energy change was   -0.142824606885088     
   GDM::trust : updated trust radius is        0.330000000000000     
   GDM:         diagonal hessian shift is      0.000000000000000E+000
   GDM::PreWSS: input subspace size is                 11
   GDM::PreWSS: working subspace size set to           11
   GDM::PrEWSS: # of linearly dependent vectors =            0
   GDM::PrEWSS: Max dev from orthonormality =   1.581255959504091E-012
   GDM::BFGS:   lowest Hinv e-value    0.260804341280599     
   GDM::BFGS:   highest Hinv e-value    3.53045977482742     
   GDM::      : max scaling in EWCs is          2.82842712474619     
   GDM::      : max rotation in step is       -0.231802706132434     
   GDM::        grad.step =  -0.260259488254358     
   ------- Leaving GDM -- hopefully with a step in the right direction! --------
 
   12    -917.1942428754      4.18E-01  Gap = -191.99 eV  Descent step
 
   ------------------- Entering Geometric Direct Minimization ------------------
   GDM::trust : actual energy change is       -0.251296379970881     
   GDM::trust : predicted energy change was   -0.133128611745761     
   GDM::trust : updated trust radius is        0.330000000000000     
   GDM:         diagonal hessian shift is      0.000000000000000E+000
   GDM::PreWSS: input subspace size is                 12
   GDM::PreWSS: working subspace size set to           12
   GDM::PrEWSS: # of linearly dependent vectors =            0
   GDM::PrEWSS: Max dev from orthonormality =   9.283896568179628E-012
   GDM::BFGS:   lowest Hinv e-value    0.179902875837246     
   GDM::BFGS:   highest Hinv e-value    4.93000606385598     
   GDM::      : max scaling in EWCs is          2.82842712474619     
   GDM::      : max rotation in step is       -0.798984026104552     
   GDM::        grad.step =  -0.465628081684921     
   ------- Leaving GDM -- hopefully with a step in the right direction! --------
 
   13    -917.4455392554      1.21E+00  Gap = -191.99 eV  Descent step
 
   ------------------- Entering Geometric Direct Minimization ------------------
   GDM::trust : actual energy change is       -0.244039574824455     
   GDM::trust : predicted energy change was   -0.242802915402470     
   GDM::trust : updated trust radius is        0.330000000000000     
   GDM:         diagonal hessian shift is      0.000000000000000E+000
   GDM::PreWSS: input subspace size is                 13
   GDM::PreWSS: working subspace size set to           13
   GDM::PrEWSS: # of linearly dependent vectors =            0
   GDM::PrEWSS: Max dev from orthonormality =   4.711439571813969E-012
   GDM::BFGS:   lowest Hinv e-value    0.250446691196875     
   GDM::BFGS:   highest Hinv e-value    5.84011332399424     
   GDM::      : max scaling in EWCs is          2.82842712474619     
   GDM::      : max rotation in step is        0.600025428190226     
   GDM::        grad.step =  -0.335329102516461     
   ------- Leaving GDM -- hopefully with a step in the right direction! --------
 
   14    -917.6895788302      6.53E-01  Gap = -191.99 eV  Descent step
 
   ------------------- Entering Geometric Direct Minimization ------------------
   GDM::trust : actual energy change is       -0.250538009029128     
   GDM::trust : predicted energy change was   -0.233517407887437     
   GDM::trust : updated trust radius is        0.330000000000000     
   GDM:         diagonal hessian shift is      0.000000000000000E+000
   GDM::PreWSS: input subspace size is                 14
   GDM::PreWSS: working subspace size set to           14
   GDM::PrEWSS: # of linearly dependent vectors =            0
   GDM::PrEWSS: Max dev from orthonormality =   6.346090319908626E-012
   GDM::BFGS:   lowest Hinv e-value    0.273687772521360     
   GDM::BFGS:   highest Hinv e-value    5.63989232988809     
   GDM::      : max scaling in EWCs is          2.82842712474619     
   GDM::      : max rotation in step is       -0.610893403962006     
   GDM::        grad.step =  -0.183968476681546     
   ------- Leaving GDM -- hopefully with a step in the right direction! --------
 
   15    -917.9401168393      3.65E-01  Gap = 0.00 eV  Descent step
 
   ------------------- Entering Geometric Direct Minimization ------------------
   GDM::trust : actual energy change is       -5.710436293122712E-002
   GDM::trust : predicted energy change was   -0.163391456591151     
   GDM::trust : updated trust radius is        0.330000000000000     
   GDM:         diagonal hessian shift is      0.000000000000000E+000
   GDM::PreWSS: input subspace size is                 15
   GDM::PreWSS: working subspace size set to           15
   GDM::PrEWSS: # of linearly dependent vectors =            0
   GDM::PrEWSS: Max dev from orthonormality =   9.069982612186500E-012
   GDM::BFGS:   lowest Hinv e-value    0.148204457381247     
   GDM::BFGS:   highest Hinv e-value    7.02891914986904     
   GDM::      : max scaling in EWCs is          2.82842712474619     
   GDM::      : max rotation in step is        0.379467337298917     
   GDM::        grad.step =  -0.306333829766939     
   ------- Leaving GDM -- hopefully with a step in the right direction! --------
 
   16    -917.9972212022      3.77E-01  Gap = 0.00 eV  Descent step
 
   ------------------- Entering Geometric Direct Minimization ------------------
   GDM::trust : actual energy change is        4.685237653347940E-002
   GDM::trust : predicted energy change was   -0.439730227146381     
   GDM::trust : updated trust radius is        0.108900000000000     
   GDM::search:  On step            1 .  The current bracket is:
       left   : x =  0.0000E+00, e =      -917.9972212022, g = -0.5041E+00
       current: x =  0.6077E+00, e =      -917.9503688257, g =  0.7206E+00
       right  : x =  0.1000E+04, e =      1000.0000000000, g =  0.1000E+04
       next   : x =  0.2635E+00
   GDM::      : max rotation in step is        0.164564301539234     
   ------- Leaving GDM -- hopefully with a step in the right direction! --------
 
   17    -917.9503688257      3.42E-02  Gap = 0.00 eV  Line search: overstep
 
   ------------------- Entering Geometric Direct Minimization ------------------
   GDM::trust : actual energy change is       -7.237247566899896E-002
   GDM::trust : predicted energy change was   -0.439730227146381     
   GDM::trust : updated trust radius is        0.108900000000000     
   GDM:         diagonal hessian shift is      0.000000000000000E+000
   GDM::PreWSS: input subspace size is                 16
   GDM::PreWSS: working subspace size set to           16
   GDM::PrEWSS: # of linearly dependent vectors =            0
   GDM::PrEWSS: Max dev from orthonormality =   3.416844931991569E-012
   GDM::BFGS:   lowest Hinv e-value    0.154918290002574     
   GDM::BFGS:   highest Hinv e-value    5.98003834437755     
   GDM::      : max scaling in EWCs is          2.82842712474619     
   GDM::      : max rotation in step is        0.203157315542195     
   GDM::        grad.step =  -2.485266885215647E-002
   ------- Leaving GDM -- hopefully with a step in the right direction! --------
 
   18    -918.0695936779      1.51E-01  Gap = 0.00 eV  Descent step
 
   ------------------- Entering Geometric Direct Minimization ------------------
   GDM::trust : actual energy change is       -2.071316248748190E-002
   GDM::trust : predicted energy change was   -1.893052684524896E-002
   GDM::trust : updated trust radius is        0.330000000000000     
   GDM:         diagonal hessian shift is      0.000000000000000E+000
   GDM::PreWSS: input subspace size is                 17
   GDM::PreWSS: working subspace size set to           17
   GDM::PrEWSS: # of linearly dependent vectors =            0
   GDM::PrEWSS: Max dev from orthonormality =   3.077774146653667E-012
   GDM::BFGS:   lowest Hinv e-value    0.157915159647649     
   GDM::BFGS:   highest Hinv e-value    6.13390823043587     
   GDM::trust : dogleg step length is          0.330000000000000     
   GDM::      : max scaling in EWCs is          2.82842712474619     
   GDM::      : max rotation in step is        0.523393159882907     
   GDM::        grad.step =  -5.580849437795846E-002
   ------- Leaving GDM -- hopefully with a step in the right direction! --------
 
   19    -918.0903068403      5.28E-02  Gap = 0.00 eV  Dog-leg BFGS step
 
   ------------------- Entering Geometric Direct Minimization ------------------
   GDM::trust : actual energy change is       -2.108759655641279E-002
   GDM::trust : predicted energy change was   -8.194093829631162E-002
   GDM::trust : updated trust radius is        0.330000000000000     
   GDM:         diagonal hessian shift is      0.000000000000000E+000
   GDM::PreWSS: input subspace size is                 18
   GDM::PreWSS: working subspace size set to           18
   GDM::PrEWSS: # of linearly dependent vectors =            0
   GDM::PrEWSS: Max dev from orthonormality =   1.077239686342324E-011
   GDM::BFGS:   lowest Hinv e-value    0.205278494250644     
   GDM::BFGS:   highest Hinv e-value    5.88393555984304     
   GDM::      : max scaling in EWCs is          2.82842712474619     
   GDM::      : max rotation in step is       -0.108819966917308     
   GDM::        grad.step =  -1.815305866402545E-002
   ------- Leaving GDM -- hopefully with a step in the right direction! --------
 
   20    -918.1113944369      1.10E-01  Gap = 0.00 eV  Normal BFGS step
 
   ------------------- Entering Geometric Direct Minimization ------------------
   GDM::trust : actual energy change is       -4.393571856553535E-003
   GDM::trust : predicted energy change was   -2.722958799603816E-002
   GDM::trust : updated trust radius is        0.330000000000000     
   GDM:         diagonal hessian shift is      0.000000000000000E+000
   GDM::PreWSS: input subspace size is                 19
   GDM::PreWSS: working subspace size set to           18
   GDM::PrEWSS: # of linearly dependent vectors =            0
   GDM::PrEWSS: Max dev from orthonormality =   1.392463921945364E-011
   GDM::BFGS:   lowest Hinv e-value    0.181559031678563     
   GDM::BFGS:   highest Hinv e-value    5.55084889653239     
   GDM::      : max scaling in EWCs is          2.82842712474619     
   GDM::      : max rotation in step is        4.727507473763862E-002
   GDM::        grad.step =  -8.067861589262305E-003
   ------- Leaving GDM -- hopefully with a step in the right direction! --------
 
   21    -918.1157880088      3.44E-02  Gap = 0.00 eV  Normal BFGS step
 
   ------------------- Entering Geometric Direct Minimization ------------------
   GDM::trust : actual energy change is        3.341477606909393E-003
   GDM::trust : predicted energy change was   -1.210179238389346E-002
   GDM::trust : updated trust radius is        0.108900000000000     
   GDM::search:  On step            1 .  The current bracket is:
       left   : x =  0.0000E+00, e =      -918.1157880088, g = -0.5840E-01
       current: x =  0.1381E+00, e =      -918.1124465312, g =  0.1075E+00
       right  : x =  0.1000E+04, e =      1000.0000000000, g =  0.1000E+04
       next   : x =  0.4884E-01
   GDM::      : max rotation in step is        1.671476117272759E-002
   ------- Leaving GDM -- hopefully with a step in the right direction! --------
 
   22    -918.1124465312      4.40E-03  Gap = 0.00 eV  Line search: overstep
 
   ------------------- Entering Geometric Direct Minimization ------------------
   GDM::trust : actual energy change is       -1.435670081605167E-003
   GDM::trust : predicted energy change was   -1.210179238389346E-002
   GDM::trust : updated trust radius is        0.108900000000000     
   GDM:         diagonal hessian shift is      0.000000000000000E+000
   GDM::PreWSS: input subspace size is                 19
   GDM::PreWSS: working subspace size set to           18
   GDM::PrEWSS: # of linearly dependent vectors =            0
   GDM::PrEWSS: Max dev from orthonormality =   1.058446559565329E-011
   GDM::BFGS:   lowest Hinv e-value    0.186920060203426     
   GDM::BFGS:   highest Hinv e-value    3.15678296671489     
   GDM::      : max scaling in EWCs is          2.82842712474619     
   GDM::      : max rotation in step is        0.114142825055486     
   GDM::        grad.step =  -4.812137722509978E-003
   ------- Leaving GDM -- hopefully with a step in the right direction! --------
 
   23    -918.1172236788      2.61E-02  Gap = 0.00 eV  Normal BFGS step
 
   ------------------- Entering Geometric Direct Minimization ------------------
   GDM::trust : actual energy change is       -4.481270270844107E-004
   GDM::trust : predicted energy change was   -7.218206583764967E-003
   GDM::trust : updated trust radius is        0.330000000000000     
   GDM:         diagonal hessian shift is      0.000000000000000E+000
   GDM::PreWSS: input subspace size is                 19
   GDM::PreWSS: working subspace size set to           18
   GDM::PrEWSS: # of linearly dependent vectors =            0
   GDM::PrEWSS: Max dev from orthonormality =   6.987636164135225E-012
   GDM::BFGS:   lowest Hinv e-value    0.175675118860846     
   GDM::BFGS:   highest Hinv e-value    3.23480944300231     
   GDM::      : max scaling in EWCs is          2.82842712474619     
   GDM::      : max rotation in step is        3.523820527196135E-002
   GDM::        grad.step =  -3.227848095124836E-003
   ------- Leaving GDM -- hopefully with a step in the right direction! --------
 
   24    -918.1176718059      3.12E-02  Gap = 0.00 eV  Normal BFGS step
 
   ------------------- Entering Geometric Direct Minimization ------------------
   GDM::trust : actual energy change is       -6.330936728318193E-004
   GDM::trust : predicted energy change was   -4.841772142687251E-003
   GDM::trust : updated trust radius is        0.330000000000000     
   GDM:         diagonal hessian shift is      0.000000000000000E+000
   GDM::PreWSS: input subspace size is                 19
   GDM::PreWSS: working subspace size set to           18
   GDM::PrEWSS: # of linearly dependent vectors =            0
   GDM::PrEWSS: Max dev from orthonormality =   4.856849297740773E-012
   GDM::BFGS:   lowest Hinv e-value    0.188745365428129     
   GDM::BFGS:   highest Hinv e-value    3.40904290967072     
   GDM::      : max scaling in EWCs is          2.82842712474619     
   GDM::      : max rotation in step is       -4.698383540542658E-002
   GDM::        grad.step =  -3.137798776421063E-003
   ------- Leaving GDM -- hopefully with a step in the right direction! --------
 
   25    -918.1183048995      4.58E-02  Gap = 0.00 eV  Normal BFGS step
 
   ------------------- Entering Geometric Direct Minimization ------------------
   GDM::trust : actual energy change is        1.912933754852020E-003
   GDM::trust : predicted energy change was   -4.706698164631592E-003
   GDM::trust : updated trust radius is        0.108900000000000     
   GDM::search:  On step            1 .  The current bracket is:
       left   : x =  0.0000E+00, e =      -918.1183048995, g = -0.3109E-01
       current: x =  0.1009E+00, e =      -918.1163919658, g =  0.6895E-01
       right  : x =  0.1000E+04, e =      1000.0000000000, g =  0.1000E+04
       next   : x =  0.3136E-01
   GDM::      : max rotation in step is       -1.459449894979453E-002
   ------- Leaving GDM -- hopefully with a step in the right direction! --------
 
   26    -918.1163919658      7.05E-03  Gap = 0.00 eV  Line search: overstep
 
   ------------------- Entering Geometric Direct Minimization ------------------
   GDM::trust : actual energy change is       -4.875389481640013E-004
   GDM::trust : predicted energy change was   -4.706698164631592E-003
   GDM::trust : updated trust radius is        0.108900000000000     
   GDM:         diagonal hessian shift is      0.000000000000000E+000
   GDM::PreWSS: input subspace size is                 19
   GDM::PreWSS: working subspace size set to           18
   GDM::PrEWSS: # of linearly dependent vectors =            0
   GDM::PrEWSS: Max dev from orthonormality =   2.308549532092918E-011
   GDM::BFGS:   lowest Hinv e-value    0.161700417167720     
   GDM::BFGS:   highest Hinv e-value    3.10228541526486     
   GDM::      : max scaling in EWCs is          2.82842712474619     
   GDM::      : max rotation in step is       -3.724888262641527E-002
   GDM::        grad.step =  -8.695615030397432E-004
   ------- Leaving GDM -- hopefully with a step in the right direction! --------
 
   27    -918.1187924385      1.30E-02  Gap = 0.00 eV  Normal BFGS step
 
   ------------------- Entering Geometric Direct Minimization ------------------
   GDM::trust : actual energy change is       -8.972338071089325E-005
   GDM::trust : predicted energy change was   -1.304342254559615E-003
   GDM::trust : updated trust radius is        0.330000000000000     
   GDM:         diagonal hessian shift is      0.000000000000000E+000
   GDM::PreWSS: input subspace size is                 19
   GDM::PreWSS: working subspace size set to           18
   GDM::PrEWSS: # of linearly dependent vectors =            0
   GDM::PrEWSS: Max dev from orthonormality =   2.095839821136813E-011
   GDM::BFGS:   lowest Hinv e-value    0.162159593607170     
   GDM::BFGS:   highest Hinv e-value    2.65712000611406     
   GDM::      : max scaling in EWCs is          2.82842712474619     
   GDM::      : max rotation in step is        3.209677608002284E-002
   GDM::        grad.step =  -4.167390182077720E-004
   ------- Leaving GDM -- hopefully with a step in the right direction! --------
 
   28    -918.1188821619      9.29E-03  Gap = -191.99 eV  Normal BFGS step
 
   ------------------- Entering Geometric Direct Minimization ------------------
   GDM::trust : actual energy change is       -1.859953573557505E-004
   GDM::trust : predicted energy change was   -6.251085273116578E-004
   GDM::trust : updated trust radius is        0.330000000000000     
   GDM:         diagonal hessian shift is      0.000000000000000E+000
   GDM::PreWSS: input subspace size is                 19
   GDM::PreWSS: working subspace size set to           18
   GDM::PrEWSS: # of linearly dependent vectors =            0
   GDM::PrEWSS: Max dev from orthonormality =   1.384168647755590E-011
   GDM::BFGS:   lowest Hinv e-value    0.164429400113623     
   GDM::BFGS:   highest Hinv e-value    2.66940737527388     
   GDM::      : max scaling in EWCs is          2.82842712474619     
   GDM::      : max rotation in step is        3.667488164794205E-003
   GDM::        grad.step =  -4.229004017166493E-005
   ------- Leaving GDM -- hopefully with a step in the right direction! --------
 
   29    -918.1190681572      4.68E-03  Gap = -191.99 eV  Normal BFGS step
 
   ------------------- Entering Geometric Direct Minimization ------------------
   GDM::trust : actual energy change is       -1.153994992364460E-005
   GDM::trust : predicted energy change was   -6.343506025749739E-005
   GDM::trust : updated trust radius is        0.330000000000000     
   GDM:         diagonal hessian shift is      0.000000000000000E+000
   GDM::PreWSS: input subspace size is                 19
   GDM::PreWSS: working subspace size set to           18
   GDM::PrEWSS: # of linearly dependent vectors =            0
   GDM::PrEWSS: Max dev from orthonormality =   1.951503195152249E-011
   GDM::BFGS:   lowest Hinv e-value    0.161861281574865     
   GDM::BFGS:   highest Hinv e-value    2.49104959884110     
   GDM::      : max scaling in EWCs is          2.82842712474619     
   GDM::      : max rotation in step is       -2.035007423759031E-003
   GDM::        grad.step =  -1.389458645229422E-005
   ------- Leaving GDM -- hopefully with a step in the right direction! --------
 
   30    -918.1190796972      1.72E-03  Gap = -191.99 eV  Normal BFGS step
 
   ------------------- Entering Geometric Direct Minimization ------------------
   GDM::trust : actual energy change is       -6.289220664257300E-006
   GDM::trust : predicted energy change was   -2.084187967844134E-005
   GDM::trust : updated trust radius is        0.330000000000000     
   GDM:         diagonal hessian shift is      0.000000000000000E+000
   GDM::PreWSS: input subspace size is                 19
   GDM::PreWSS: working subspace size set to           18
   GDM::PrEWSS: # of linearly dependent vectors =            0
   GDM::PrEWSS: Max dev from orthonormality =   1.256414000616601E-010
   GDM::BFGS:   lowest Hinv e-value    0.164062978125649     
   GDM::BFGS:   highest Hinv e-value    1.99274133247757     
   GDM::      : max scaling in EWCs is          2.82842712474619     
   GDM::      : max rotation in step is       -3.971962012464995E-003
   GDM::        grad.step =  -5.757295617872375E-006
   ------- Leaving GDM -- hopefully with a step in the right direction! --------
 
   31    -918.1190859864      1.78E-03  Gap = -191.99 eV  Normal BFGS step
 
   ------------------- Entering Geometric Direct Minimization ------------------
   GDM::trust : actual energy change is       -3.602699621296779E-006
   GDM::trust : predicted energy change was   -8.635943426808561E-006
   GDM::trust : updated trust radius is        0.330000000000000     
   GDM:         diagonal hessian shift is      0.000000000000000E+000
   GDM::PreWSS: input subspace size is                 19
   GDM::PreWSS: working subspace size set to           18
   GDM::PrEWSS: # of linearly dependent vectors =            0
   GDM::PrEWSS: Max dev from orthonormality =   5.865728736065279E-011
   GDM::BFGS:   lowest Hinv e-value    0.139851301941730     
   GDM::BFGS:   highest Hinv e-value    4.64779843723470     
   GDM::      : max scaling in EWCs is          2.82842712474619     
   GDM::      : max rotation in step is       -1.173449595943561E-002
   GDM::        grad.step =  -9.287314418420163E-006
   ------- Leaving GDM -- hopefully with a step in the right direction! --------
 
   32    -918.1190895891      1.76E-03  Gap = -191.99 eV  Normal BFGS step
 
   ------------------- Entering Geometric Direct Minimization ------------------
   GDM::trust : actual energy change is       -1.156324447038060E-005
   GDM::trust : predicted energy change was   -1.393097162763025E-005
   GDM::trust : updated trust radius is        0.330000000000000     
   GDM::search:  On step            1 .  The current bracket is:
       left   : x =  0.0000E+00, e =      -918.1190895891, g = -0.5988E-03
       current: x =  0.1551E-01, e =      -918.1191011523, g = -0.8922E-03
       right  : x =  0.1000E+04, e =      1000.0000000000, g =  0.1000E+04
       next   : x =  0.1551E+00
   GDM::      : max rotation in step is       -0.117344959594356     
   ------- Leaving GDM -- hopefully with a step in the right direction! --------
 
   33    -918.1191011523      2.39E-04  Gap = -191.99 eV  Line search: understep
 
   ------------------- Entering Geometric Direct Minimization ------------------
   GDM::trust : actual energy change is       -3.125214554984268E-004
   GDM::trust : predicted energy change was   -1.393097162763025E-005
   GDM::trust : updated trust radius is        0.330000000000000     
   GDM:         diagonal hessian shift is      0.000000000000000E+000
   GDM::PreWSS: input subspace size is                 19
   GDM::PreWSS: working subspace size set to           18
   GDM::PrEWSS: # of linearly dependent vectors =            0
   GDM::PrEWSS: Max dev from orthonormality =   4.923388086108815E-012
   GDM::BFGS:   lowest Hinv e-value    -2.00677702914689     
   GDM::BFGS:   highest Hinv e-value    3.96056951724833     
   GDM::BFGS:   rebuilding Hinv to be positive definite
   GDM::      : max scaling in EWCs is          2.82842712474619     
   GDM::      : max rotation in step is        7.008112462454019E-002
   GDM::        grad.step =  -1.623845762587772E-003
   ------- Leaving GDM -- hopefully with a step in the right direction! --------
 
   34    -918.1194021106      2.18E-02  Gap = -191.99 eV  Normal BFGS step
 
   ------------------- Entering Geometric Direct Minimization ------------------
   GDM::trust : actual energy change is       -8.781139802067628E-004
   GDM::trust : predicted energy change was   -2.435768643881658E-003
   GDM::trust : updated trust radius is        0.330000000000000     
   GDM:         diagonal hessian shift is      0.000000000000000E+000
   GDM::PreWSS: input subspace size is                 19
   GDM::PreWSS: working subspace size set to           18
   GDM::PrEWSS: # of linearly dependent vectors =            0
   GDM::PrEWSS: Max dev from orthonormality =   6.094354187968776E-012
   GDM::BFGS:   lowest Hinv e-value    0.120905803959980     
   GDM::BFGS:   highest Hinv e-value    4.99027086416935     
   GDM::      : max scaling in EWCs is          2.82842712474619     
   GDM::      : max rotation in step is       -0.140855841780814     
   GDM::        grad.step =  -1.696749164511206E-003
   ------- Leaving GDM -- hopefully with a step in the right direction! --------
 
   35    -918.1202802245      3.38E-02  Gap = -191.99 eV  Normal BFGS step
 
   ------------------- Entering Geometric Direct Minimization ------------------
   GDM::trust : actual energy change is       -1.678005154872153E-003
   GDM::trust : predicted energy change was   -2.545123746766808E-003
   GDM::trust : updated trust radius is        0.330000000000000     
   GDM:         diagonal hessian shift is      0.000000000000000E+000
   GDM::PreWSS: input subspace size is                 19
   GDM::PreWSS: working subspace size set to           18
   GDM::PrEWSS: # of linearly dependent vectors =            0
   GDM::PrEWSS: Max dev from orthonormality =   5.909488176580879E-012
   GDM::BFGS:   lowest Hinv e-value    6.432791850966214E-002
   GDM::BFGS:   highest Hinv e-value    115.886174239244     
   GDM::trust : dogleg step length is          0.330000000000000     
   GDM::      : max scaling in EWCs is          2.82842712474619     
   GDM::      : max rotation in step is       -0.722654610578442     
   GDM::        grad.step =  -1.269764980954008E-002
   ------- Leaving GDM -- hopefully with a step in the right direction! --------
 
   36    -918.1219582297      5.57E-02  Gap = -191.99 eV  Dog-leg BFGS step
 
   ------------------- Entering Geometric Direct Minimization ------------------
   GDM::trust : actual energy change is        7.414608811700418E-003
   GDM::trust : predicted energy change was   -4.700757945712798E-002
   GDM::trust : updated trust radius is        0.108900000000000     
   GDM::search:  On step            1 .  The current bracket is:
       left   : x =  0.0000E+00, e =      -918.1219582297, g = -0.1435E-01
       current: x =  0.8848E+00, e =      -918.1145436209, g =  0.5494E-01
       right  : x =  0.1000E+04, e =      1000.0000000000, g =  0.1000E+04
       next   : x =  0.2793E+00
   GDM::      : max rotation in step is       -0.228119957862014     
   ------- Leaving GDM -- hopefully with a step in the right direction! --------
 
   37    -918.1145436209      1.23E-02  Gap = -191.99 eV  Line search: overstep
 
   ------------------- Entering Geometric Direct Minimization ------------------
   GDM::trust : actual energy change is       -3.338786040103514E-003
   GDM::trust : predicted energy change was   -4.700757945712798E-002
   GDM::trust : updated trust radius is        0.108900000000000     
   GDM:         diagonal hessian shift is      0.000000000000000E+000
   GDM::PreWSS: input subspace size is                 19
   GDM::PreWSS: working subspace size set to           18
   GDM::PrEWSS: # of linearly dependent vectors =            0
   GDM::PrEWSS: Max dev from orthonormality =   2.710351387769094E-011
   GDM::BFGS:   lowest Hinv e-value    0.160316451653456     
   GDM::BFGS:   highest Hinv e-value    12.2091984460489     
   GDM::trust : dogleg step length is          0.108900000000000     
   GDM::      : max scaling in EWCs is          2.82842712474619     
   GDM::      : max rotation in step is       -0.143857569164734     
   GDM::        grad.step =  -7.298805555009788E-003
   ------- Leaving GDM -- hopefully with a step in the right direction! --------
 
   38    -918.1252970157      3.64E-02  Gap = -191.99 eV  Dog-leg BFGS step
 
   ------------------- Entering Geometric Direct Minimization ------------------
   GDM::trust : actual energy change is        2.396336479705496E-003
   GDM::trust : predicted energy change was   -9.445206205270949E-003
   GDM::trust : updated trust radius is        3.593700000000000E-002
   GDM::search:  On step            1 .  The current bracket is:
       left   : x =  0.0000E+00, e =      -918.1252970157, g = -0.3320E-01
       current: x =  0.2199E+00, e =      -918.1229006793, g =  0.4915E-01
       right  : x =  0.1000E+04, e =      1000.0000000000, g =  0.1000E+04
       next   : x =  0.8276E-01
   GDM::      : max rotation in step is       -5.415023427145703E-002
   ------- Leaving GDM -- hopefully with a step in the right direction! --------
 
   39    -918.1229006793      2.25E-02  Gap = -191.99 eV  Line search: overstep
 
   ------------------- Entering Geometric Direct Minimization ------------------
   GDM::trust : actual energy change is       -1.262860449628533E-003
   GDM::trust : predicted energy change was   -9.445206205270949E-003
   GDM::trust : updated trust radius is        3.593700000000000E-002
   GDM:         diagonal hessian shift is      0.000000000000000E+000
   GDM::PreWSS: input subspace size is                 19
   GDM::PreWSS: working subspace size set to           18
   GDM::PrEWSS: # of linearly dependent vectors =            0
   GDM::PrEWSS: Max dev from orthonormality =   3.950145072151301E-011
   GDM::BFGS:   lowest Hinv e-value    0.213155201454130     
   GDM::BFGS:   highest Hinv e-value    14.8298961927670     
   GDM::      : max scaling in EWCs is          2.82842712474619     
   GDM::      : max rotation in step is        4.782198124458668E-002
   GDM::        grad.step =  -2.675085491326778E-003
   ------- Leaving GDM -- hopefully with a step in the right direction! --------
 
   40    -918.1265598762      4.01E-02  Gap = -191.99 eV  Descent step
 
   ------------------- Entering Geometric Direct Minimization ------------------
   GDM::trust : actual energy change is       -8.618164454219368E-004
   GDM::trust : predicted energy change was   -3.121101198739612E-003
   GDM::trust : updated trust radius is        0.330000000000000     
   GDM:         diagonal hessian shift is      0.000000000000000E+000
   GDM::PreWSS: input subspace size is                 19
   GDM::PreWSS: working subspace size set to           18
   GDM::PrEWSS: # of linearly dependent vectors =            0
   GDM::PrEWSS: Max dev from orthonormality =   1.237338009829614E-011
   GDM::BFGS:   lowest Hinv e-value    0.200618305050192     
   GDM::BFGS:   highest Hinv e-value    13.2439694434479     
   GDM::trust : dogleg step length is          0.330000000000000     
   GDM::      : max scaling in EWCs is          2.82842712474619     
   GDM::      : max rotation in step is       -0.733362624007204     
   GDM::        grad.step =  -1.113974213675411E-002
   ------- Leaving GDM -- hopefully with a step in the right direction! --------
 
   41    -918.1274216926      2.39E-02  Gap = -191.99 eV  Dog-leg BFGS step
 
   ------------------- Entering Geometric Direct Minimization ------------------
   GDM::trust : actual energy change is        3.566521782704513E-002
   GDM::trust : predicted energy change was   -1.628801693445370E-002
   GDM::trust : updated trust radius is        0.108900000000000     
   GDM::search:  On step            1 .  The current bracket is:
       left   : x =  0.0000E+00, e =      -918.1274216926, g = -0.1280E-01
       current: x =  0.8705E+00, e =      -918.0917564748, g =  0.1237E+00
       right  : x =  0.1000E+04, e =      1000.0000000000, g =  0.1000E+04
       next   : x =  0.1036E+00
   GDM::      : max rotation in step is       -8.727141878224226E-002
   ------- Leaving GDM -- hopefully with a step in the right direction! --------
 
   42    -918.0917564748      3.88E-02  Gap = -191.99 eV  Line search: overstep
 
   ------------------- Entering Geometric Direct Minimization ------------------
   GDM::trust : actual energy change is       -1.003626504825661E-003
   GDM::trust : predicted energy change was   -1.628801693445370E-002
   GDM::trust : updated trust radius is        0.108900000000000     
   GDM:         diagonal hessian shift is      0.000000000000000E+000
   GDM::PreWSS: input subspace size is                 19
   GDM::PreWSS: working subspace size set to           18
   GDM::PrEWSS: # of linearly dependent vectors =            0
   GDM::PrEWSS: Max dev from orthonormality =   2.601625512244077E-011
   GDM::BFGS:   lowest Hinv e-value    0.202660518556606     
   GDM::BFGS:   highest Hinv e-value    2.88824492120475     
   GDM::      : max scaling in EWCs is          2.82842712474619     
   GDM::      : max rotation in step is       -7.265108639497397E-002
   GDM::        grad.step =  -1.535585320316080E-003
   ------- Leaving GDM -- hopefully with a step in the right direction! --------
 
   43    -918.1284253191      1.97E-02  Gap = -191.99 eV  Normal BFGS step
 
   ------------------- Entering Geometric Direct Minimization ------------------
   GDM::trust : actual energy change is       -8.671671132560732E-004
   GDM::trust : predicted energy change was   -2.303377980474120E-003
   GDM::trust : updated trust radius is        0.330000000000000     
   GDM:         diagonal hessian shift is      0.000000000000000E+000
   GDM::PreWSS: input subspace size is                 19
   GDM::PreWSS: working subspace size set to           18
   GDM::PrEWSS: # of linearly dependent vectors =            0
   GDM::PrEWSS: Max dev from orthonormality =   1.000965560438161E-010
   GDM::BFGS:   lowest Hinv e-value    0.229515672923681     
   GDM::BFGS:   highest Hinv e-value    3.08971608762915     
   GDM::      : max scaling in EWCs is          2.82842712474619     
   GDM::      : max rotation in step is       -1.978325258898792E-002
   GDM::        grad.step =  -1.917792161179295E-004
   ------- Leaving GDM -- hopefully with a step in the right direction! --------
 
   44    -918.1292924862      8.09E-03  Gap = -191.99 eV  Normal BFGS step
 
   ------------------- Entering Geometric Direct Minimization ------------------
   GDM::trust : actual energy change is       -1.159880467866969E-004
   GDM::trust : predicted energy change was   -2.876688241768943E-004
   GDM::trust : updated trust radius is        0.330000000000000     
   GDM:         diagonal hessian shift is      0.000000000000000E+000
   GDM::PreWSS: input subspace size is                 19
   GDM::PreWSS: working subspace size set to           18
   GDM::PrEWSS: # of linearly dependent vectors =            0
   GDM::PrEWSS: Max dev from orthonormality =   6.728674215028541E-011
   GDM::BFGS:   lowest Hinv e-value    0.238328254156604     
   GDM::BFGS:   highest Hinv e-value    3.90243084149616     
   GDM::      : max scaling in EWCs is          2.82842712474619     
   GDM::      : max rotation in step is       -2.758018850570881E-002
   GDM::        grad.step =  -1.017930684530943E-004
   ------- Leaving GDM -- hopefully with a step in the right direction! --------
 
   45    -918.1294084743      3.74E-03  Gap = -191.99 eV  Normal BFGS step
 
   ------------------- Entering Geometric Direct Minimization ------------------
   GDM::trust : actual energy change is       -4.749424215333420E-005
   GDM::trust : predicted energy change was   -1.526896026796414E-004
   GDM::trust : updated trust radius is        0.330000000000000     
   GDM:         diagonal hessian shift is      0.000000000000000E+000
   GDM::PreWSS: input subspace size is                 19
   GDM::PreWSS: working subspace size set to           18
   GDM::PrEWSS: # of linearly dependent vectors =            0
   GDM::PrEWSS: Max dev from orthonormality =   1.104776131688467E-010
   GDM::BFGS:   lowest Hinv e-value    0.213082209506177     
   GDM::BFGS:   highest Hinv e-value    4.84490976507924     
   GDM::      : max scaling in EWCs is          2.82842712474619     
   GDM::      : max rotation in step is       -2.033196717804227E-002
   GDM::        grad.step =  -6.549661723579675E-005
   ------- Leaving GDM -- hopefully with a step in the right direction! --------
 
   46    -918.1294559685      4.41E-03  Gap = -191.99 eV  Normal BFGS step
 
   ------------------- Entering Geometric Direct Minimization ------------------
   GDM::trust : actual energy change is       -3.515609375881468E-005
   GDM::trust : predicted energy change was   -9.824492585369511E-005
   GDM::trust : updated trust radius is        0.330000000000000     
   GDM:         diagonal hessian shift is      0.000000000000000E+000
   GDM::PreWSS: input subspace size is                 19
   GDM::PreWSS: working subspace size set to           18
   GDM::PrEWSS: # of linearly dependent vectors =            0
   GDM::PrEWSS: Max dev from orthonormality =   7.731848147840559E-011
   GDM::BFGS:   lowest Hinv e-value    0.179908480508452     
   GDM::BFGS:   highest Hinv e-value    5.04948299353412     
   GDM::      : max scaling in EWCs is          2.82842712474619     
   GDM::      : max rotation in step is        1.549527255528613E-002
   GDM::        grad.step =  -3.298368751849615E-005
   ------- Leaving GDM -- hopefully with a step in the right direction! --------
 
   47    -918.1294911246      2.03E-03  Gap = -191.99 eV  Normal BFGS step
 
   ------------------- Entering Geometric Direct Minimization ------------------
   GDM::trust : actual energy change is       -1.988010649256466E-005
   GDM::trust : predicted energy change was   -4.947553127774423E-005
   GDM::trust : updated trust radius is        0.330000000000000     
   GDM:         diagonal hessian shift is      0.000000000000000E+000
   GDM::PreWSS: input subspace size is                 19
   GDM::PreWSS: working subspace size set to           18
   GDM::PrEWSS: # of linearly dependent vectors =            0
   GDM::PrEWSS: Max dev from orthonormality =   1.466230782620759E-010
   GDM::BFGS:   lowest Hinv e-value    0.222345282559695     
   GDM::BFGS:   highest Hinv e-value    5.81038359389750     
   GDM::      : max scaling in EWCs is          2.82842712474619     
   GDM::      : max rotation in step is        9.417567184911331E-003
   GDM::        grad.step =  -1.142216089053471E-005
   ------- Leaving GDM -- hopefully with a step in the right direction! --------
 
   48    -918.1295110047      1.13E-03  Gap = -191.99 eV  Normal BFGS step
 
   ------------------- Entering Geometric Direct Minimization ------------------
   GDM::trust : actual energy change is       -6.436007652155240E-006
   GDM::trust : predicted energy change was   -1.713324133580206E-005
   GDM::trust : updated trust radius is        0.330000000000000     
   GDM:         diagonal hessian shift is      0.000000000000000E+000
   GDM::PreWSS: input subspace size is                 19
   GDM::PreWSS: working subspace size set to           18
   GDM::PrEWSS: # of linearly dependent vectors =            0
   GDM::PrEWSS: Max dev from orthonormality =   6.012928349674596E-011
   GDM::BFGS:   lowest Hinv e-value    0.227335229236848     
   GDM::BFGS:   highest Hinv e-value    6.47380507977426     
   GDM::      : max scaling in EWCs is          2.82842712474619     
   GDM::      : max rotation in step is        2.899382584791686E-003
   GDM::        grad.step =  -1.955626104628470E-006
   ------- Leaving GDM -- hopefully with a step in the right direction! --------
 
   49    -918.1295174407      4.53E-04  Gap = -191.99 eV  Normal BFGS step
 
   ------------------- Entering Geometric Direct Minimization ------------------
   GDM::trust : actual energy change is       -1.130525447479158E-006
   GDM::trust : predicted energy change was   -2.933439156942705E-006
   GDM::trust : updated trust radius is        0.330000000000000     
   GDM:         diagonal hessian shift is      0.000000000000000E+000
   GDM::PreWSS: input subspace size is                 19
   GDM::PreWSS: working subspace size set to           18
   GDM::PrEWSS: # of linearly dependent vectors =            0
   GDM::PrEWSS: Max dev from orthonormality =   1.916425178272174E-011
   GDM::BFGS:   lowest Hinv e-value    0.226716632401121     
   GDM::BFGS:   highest Hinv e-value    6.64830863295173     
   GDM::      : max scaling in EWCs is          2.82842712474619     
   GDM::      : max rotation in step is        1.492824620991592E-003
   GDM::        grad.step =  -6.272803770018685E-007
   ------- Leaving GDM -- hopefully with a step in the right direction! --------
 
   50    -918.1295185713      2.15E-04  Gap = -191.99 eV  Normal BFGS step
 
   ------------------- Entering Geometric Direct Minimization ------------------
   GDM::trust : actual energy change is       -1.985304152185563E-007
   GDM::trust : predicted energy change was   -9.409205655028025E-007
   GDM::trust : updated trust radius is        0.330000000000000     
   GDM:         diagonal hessian shift is      0.000000000000000E+000
   GDM::PreWSS: input subspace size is                 19
   GDM::PreWSS: working subspace size set to           18
   GDM::PrEWSS: # of linearly dependent vectors =            0
   GDM::PrEWSS: Max dev from orthonormality =   4.066720571405114E-011
   GDM::BFGS:   lowest Hinv e-value    0.197595681655093     
   GDM::BFGS:   highest Hinv e-value    6.64128222296234     
   GDM::      : max scaling in EWCs is          2.82842712474619     
   GDM::      : max rotation in step is        7.169605651406081E-004
   GDM::        grad.step =  -2.649056742263263E-007
   ------- Leaving GDM -- hopefully with a step in the right direction! --------
 
   51    -918.1295187698      2.69E-04  Gap = -191.99 eV  Normal BFGS step
 
   ------------------- Entering Geometric Direct Minimization ------------------
   GDM::trust : actual energy change is       -1.052134166457108E-007
   GDM::trust : predicted energy change was   -3.973585113394895E-007
   GDM::trust : updated trust radius is        0.330000000000000     
   GDM:         diagonal hessian shift is      0.000000000000000E+000
   GDM::PreWSS: input subspace size is                 19
   GDM::PreWSS: working subspace size set to           18
   GDM::PrEWSS: # of linearly dependent vectors =            0
   GDM::PrEWSS: Max dev from orthonormality =   8.079868024646331E-011
   GDM::BFGS:   lowest Hinv e-value    0.199363871933839     
   GDM::BFGS:   highest Hinv e-value    6.70607117677605     
   GDM::      : max scaling in EWCs is          2.82842712474619     
   GDM::      : max rotation in step is        4.103981108894868E-004
   GDM::        grad.step =  -5.690751718639762E-008
   ------- Leaving GDM -- hopefully with a step in the right direction! --------
 
   52    -918.1295188750      8.99E-05  Gap = -191.99 eV  Normal BFGS step
 
   ------------------- Entering Geometric Direct Minimization ------------------
   GDM::trust : actual energy change is       -2.567992396507179E-008
   GDM::trust : predicted energy change was   -8.536127577959640E-008
   GDM::trust : updated trust radius is        0.330000000000000     
   GDM:         diagonal hessian shift is      0.000000000000000E+000
   GDM::PreWSS: input subspace size is                 19
   GDM::PreWSS: working subspace size set to           18
   GDM::PrEWSS: # of linearly dependent vectors =            0
   GDM::PrEWSS: Max dev from orthonormality =   2.464013715286484E-011
   GDM::BFGS:   lowest Hinv e-value    0.194928033449322     
   GDM::BFGS:   highest Hinv e-value    6.81501637612731     
   GDM::      : max scaling in EWCs is          2.82842712474619     
   GDM::      : max rotation in step is        2.169799349222356E-004
   GDM::        grad.step =  -1.542367112524220E-008
   ------- Leaving GDM -- hopefully with a step in the right direction! --------
 
   53    -918.1295189007      4.30E-05  Gap = -191.99 eV  Normal BFGS step
 
   ------------------- Entering Geometric Direct Minimization ------------------
   GDM::trust : actual energy change is       -4.884554982709233E-009
   GDM::trust : predicted energy change was   -2.313550668786330E-008
   GDM::trust : updated trust radius is        0.330000000000000     
   GDM:         diagonal hessian shift is      0.000000000000000E+000
   GDM::PreWSS: input subspace size is                 19
   GDM::PreWSS: working subspace size set to           18
   GDM::PrEWSS: # of linearly dependent vectors =            0
   GDM::PrEWSS: Max dev from orthonormality =   3.167552505012328E-011
   GDM::BFGS:   lowest Hinv e-value    0.196504900904606     
   GDM::BFGS:   highest Hinv e-value    6.62683904129749     
   GDM::      : max scaling in EWCs is          2.82842712474619     
   GDM::      : max rotation in step is        1.160247349513439E-004
   GDM::        grad.step =  -4.956181375864548E-009
   ------- Leaving GDM -- hopefully with a step in the right direction! --------
 
   54    -918.1295189056      1.98E-05  Gap = -191.99 eV  Normal BFGS step
 
   ------------------- Entering Geometric Direct Minimization ------------------
   GDM::trust : actual energy change is       -2.411525201750919E-009
   GDM::trust : predicted energy change was   -7.434272063796821E-009
   GDM::trust : updated trust radius is        0.330000000000000     
   GDM:         diagonal hessian shift is      0.000000000000000E+000
   GDM::PreWSS: input subspace size is                 19
   GDM::PreWSS: working subspace size set to           18
   GDM::PrEWSS: # of linearly dependent vectors =            0
   GDM::PrEWSS: Max dev from orthonormality =   1.549979797288437E-010
   GDM::BFGS:   lowest Hinv e-value    0.195884925160988     
   GDM::BFGS:   highest Hinv e-value    6.52423095566168     
   GDM::      : max scaling in EWCs is          2.82842712474619     
   GDM::      : max rotation in step is        1.875247432320451E-005
   GDM::        grad.step =  -3.503575770540546E-010
   ------- Leaving GDM -- hopefully with a step in the right direction! --------
 
   55    -918.1295189080      7.55E-06  Gap = -191.99 eV  Normal BFGS step
 
   ------------------- Entering Geometric Direct Minimization ------------------
   GDM::trust : actual energy change is       -1.451780917705037E-010
   GDM::trust : predicted energy change was   -5.255363655810819E-010
   GDM::trust : updated trust radius is        0.330000000000000     
   GDM:         diagonal hessian shift is      0.000000000000000E+000
   GDM::PreWSS: input subspace size is                 19
   GDM::PreWSS: working subspace size set to           18
   GDM::PrEWSS: # of linearly dependent vectors =            0
   GDM::PrEWSS: Max dev from orthonormality =   1.412045133597495E-011
   GDM::BFGS:   lowest Hinv e-value    0.199931669318646     
   GDM::BFGS:   highest Hinv e-value    6.52887661495993     
   GDM::      : max scaling in EWCs is          2.82842712474619     
   GDM::      : max rotation in step is        6.683666886969811E-006
   GDM::        grad.step =  -5.139144163925275E-011
   ------- Leaving GDM -- hopefully with a step in the right direction! --------
 
   56    -918.1295189081      1.33E-06  Gap = -191.99 eV  Normal BFGS step
 
   ------------------- Entering Geometric Direct Minimization ------------------
   GDM::trust : actual energy change is       -2.614797267597169E-011
   GDM::trust : predicted energy change was   -7.708716245887914E-011
   GDM::trust : updated trust radius is        0.330000000000000     
   GDM:         diagonal hessian shift is      0.000000000000000E+000
   GDM::PreWSS: input subspace size is                 19
   GDM::PreWSS: working subspace size set to           18
   GDM::PrEWSS: # of linearly dependent vectors =            0
   GDM::PrEWSS: Max dev from orthonormality =   3.900667584072481E-010
   GDM::BFGS:   lowest Hinv e-value    0.200401528428114     
   GDM::BFGS:   highest Hinv e-value    6.53160461447966     
   GDM::      : max scaling in EWCs is          2.82842712474619     
   GDM::      : max rotation in step is        4.295221821821505E-006
   GDM::        grad.step =  -7.013091362048955E-012
   ------- Leaving GDM -- hopefully with a step in the right direction! --------
 
   57    -918.1295189082      1.35E-06  Gap = -191.99 eV  Normal BFGS step
 
   ------------------- Entering Geometric Direct Minimization ------------------
   GDM::trust : actual energy change is       -5.798028723802418E-012
   GDM::trust : predicted energy change was   -1.051963704307343E-011
   GDM::trust : updated trust radius is        0.330000000000000     
   GDM:         diagonal hessian shift is      0.000000000000000E+000
   GDM::PreWSS: input subspace size is                 19
   GDM::PreWSS: working subspace size set to           18
   GDM::PrEWSS: # of linearly dependent vectors =            0
   GDM::PrEWSS: Max dev from orthonormality =   1.974992131642539E-010
   GDM::BFGS:   lowest Hinv e-value    0.192870634088187     
   GDM::BFGS:   highest Hinv e-value    6.55524227547421     
   GDM::      : max scaling in EWCs is          2.82842712474619     
   GDM::      : max rotation in step is        1.794639032255408E-005
   GDM::        grad.step =  -1.496513252804043E-011
   ------- Leaving GDM -- hopefully with a step in the right direction! --------
 
   58    -918.1295189082      1.97E-06  Gap = -191.99 eV  Normal BFGS step
 
   ------------------- Entering Geometric Direct Minimization ------------------
   GDM::trust : actual energy change is       -1.682565198279917E-011
   GDM::trust : predicted energy change was   -2.244769879206065E-011
   GDM::trust : updated trust radius is        0.330000000000000     
   GDM::search:  On step            1 .  The current bracket is:
       left   : x =  0.0000E+00, e =      -918.1295189082, g = -0.7287E-06
       current: x =  0.2054E-04, e =      -918.1295189082, g = -0.9966E-06
       right  : x =  0.1000E+04, e =      1000.0000000000, g =  0.1000E+04
       next   : x =  0.2054E-03
   GDM::      : max rotation in step is        1.794639032255408E-004
   ------- Leaving GDM -- hopefully with a step in the right direction! --------
 
   59    -918.1295189082      9.69E-07  Gap = -191.99 eV  Line search: understep
 
   ------------------- Entering Geometric Direct Minimization ------------------
   GDM::trust : actual energy change is       -4.242792783770710E-010
   GDM::trust : predicted energy change was   -2.244769879206065E-011
   GDM::trust : updated trust radius is        0.330000000000000     
   GDM::search:  On step            2 .  The current bracket is:
       left   : x =  0.2054E-04, e =      -918.1295189082, g = -0.9966E-06
       current: x =  0.2054E-03, e =      -918.1295189086, g = -0.3408E-05
       right  : x =  0.1000E+04, e =         0.0000000000, g =  0.0000E+00
       next   : x =  0.1869E-02
   GDM::      : max rotation in step is        1.633121519352421E-003
   ------- Leaving GDM -- hopefully with a step in the right direction! --------
 
   60    -918.1295189086      6.50E-06  Gap = -191.99 eV  Line search: understep
 
   ------------------- Entering Geometric Direct Minimization ------------------
   GDM::trust : actual energy change is       -2.413514721411048E-008
   GDM::trust : predicted energy change was   -2.244769879206065E-011
   GDM::trust : updated trust radius is        0.330000000000000     
   GDM::search:  On step            3 .  The current bracket is:
       left   : x =  0.2054E-03, e =      -918.1295189086, g = -0.3408E-05
       current: x =  0.1869E-02, e =      -918.1295189323, g = -0.2509E-04
       right  : x =  0.1000E+04, e =         0.0000000000, g =  0.0000E+00
       next   : x =  0.1684E-01
   GDM::      : max rotation in step is        1.471604006449434E-002
   ------- Leaving GDM -- hopefully with a step in the right direction! --------
 
   61    -918.1295189323      5.62E-05  Gap = -191.99 eV  Line search: understep
 
   ------------------- Entering Geometric Direct Minimization ------------------
   GDM::trust : actual energy change is       -1.852063178375829E-006
   GDM::trust : predicted energy change was   -2.244769879206065E-011
   GDM::trust : updated trust radius is        0.330000000000000     
   GDM::search:  On step            4 .  The current bracket is:
       left   : x =  0.1869E-02, e =      -918.1295189323, g = -0.2509E-04
       current: x =  0.1684E-01, e =      -918.1295207602, g = -0.2186E-03
       right  : x =  0.1000E+04, e =         0.0000000000, g =  0.0000E+00
       next   : x =  0.1516E+00
   GDM::      : max rotation in step is        0.132462306970772     
   ------- Leaving GDM -- hopefully with a step in the right direction! --------
 
   62    -918.1295207602      5.01E-04  Gap = -191.99 eV  Line search: understep
 
   ------------------- Entering Geometric Direct Minimization ------------------
   GDM::trust : actual energy change is       -1.379951070248353E-004
   GDM::trust : predicted energy change was   -2.244769879206065E-011
   GDM::trust : updated trust radius is        0.330000000000000     
   GDM:         diagonal hessian shift is      0.000000000000000E+000
   GDM::PreWSS: input subspace size is                 19
   GDM::PreWSS: working subspace size set to           18
   GDM::PrEWSS: # of linearly dependent vectors =            0
   GDM::PrEWSS: Max dev from orthonormality =   3.149692312520713E-011
   GDM::BFGS:   lowest Hinv e-value   -0.437180462983593     
   GDM::BFGS:   highest Hinv e-value    19.5315842524607     
   GDM::BFGS:   rebuilding Hinv to be positive definite
   GDM::      : max scaling in EWCs is          2.82842712474619     
   GDM::      : max rotation in step is       -7.804396184801254E-002
   GDM::        grad.step =  -7.106417290815993E-004
   ------- Leaving GDM -- hopefully with a step in the right direction! --------
 
   63    -918.1296569033      1.79E-02  Gap = -191.99 eV  Normal BFGS step
 
   ------------------- Entering Geometric Direct Minimization ------------------
   GDM::trust : actual energy change is        3.209402606216827E-004
   GDM::trust : predicted energy change was   -1.065962593622399E-003
   GDM::trust : updated trust radius is        0.108900000000000     
   GDM::search:  On step            1 .  The current bracket is:
       left   : x =  0.0000E+00, e =      -918.1296569033, g = -0.5956E-02
       current: x =  0.1193E+00, e =      -918.1293359630, g =  0.1116E-01
       right  : x =  0.1000E+04, e =      1000.0000000000, g =  0.1000E+04
       next   : x =  0.4109E-01
   GDM::      : max rotation in step is       -2.688167132890840E-002
   ------- Leaving GDM -- hopefully with a step in the right direction! --------
 
   64    -918.1293359630      6.69E-03  Gap = -191.99 eV  Line search: overstep
 
   ------------------- Entering Geometric Direct Minimization ------------------
   GDM::trust : actual energy change is       -1.208396017773339E-004
   GDM::trust : predicted energy change was   -1.065962593622399E-003
   GDM::trust : updated trust radius is        0.108900000000000     
   GDM:         diagonal hessian shift is      0.000000000000000E+000
   GDM::PreWSS: input subspace size is                 19
   GDM::PreWSS: working subspace size set to           18
   GDM::PrEWSS: # of linearly dependent vectors =            0
   GDM::PrEWSS: Max dev from orthonormality =   3.731878001067557E-011
   GDM::BFGS:   lowest Hinv e-value    0.180395307233841     
   GDM::BFGS:   highest Hinv e-value    6.65664223627763     
   GDM::      : max scaling in EWCs is          2.82842712474619     
   GDM::      : max rotation in step is        4.880490982468635E-002
   GDM::        grad.step =  -2.228387443387077E-004
   ------- Leaving GDM -- hopefully with a step in the right direction! --------
 
   65    -918.1297777429      1.48E-02  Gap = -191.99 eV  Normal BFGS step
 
   ------------------- Entering Geometric Direct Minimization ------------------
   GDM::trust : actual energy change is       -2.284608248146469E-004
   GDM::trust : predicted energy change was   -3.342581165080616E-004
   GDM::trust : updated trust radius is        0.330000000000000     
   GDM::search:  On step            1 .  The current bracket is:
       left   : x =  0.0000E+00, e =      -918.1297777429, g = -0.3868E-02
       current: x =  0.5761E-01, e =      -918.1300062037, g = -0.4044E-02
       right  : x =  0.1000E+04, e =      1000.0000000000, g =  0.1000E+04
       next   : x =  0.5761E+00
   GDM::      : max rotation in step is        0.488049098246863     
   ------- Leaving GDM -- hopefully with a step in the right direction! --------
 
   66    -918.1300062037      1.83E-03  Gap = -191.99 eV  Line search: understep
 
   ------------------- Entering Geometric Direct Minimization ------------------
   GDM::trust : actual energy change is       -1.092162344889402E-003
   GDM::trust : predicted energy change was   -3.342581165080616E-004
   GDM::trust : updated trust radius is        0.330000000000000     
   GDM:         diagonal hessian shift is      0.000000000000000E+000
   GDM::PreWSS: input subspace size is                 19
   GDM::PreWSS: working subspace size set to           18
   GDM::PrEWSS: # of linearly dependent vectors =            0
   GDM::PrEWSS: Max dev from orthonormality =   5.309904425876422E-012
   GDM::BFGS:   lowest Hinv e-value    0.168780162326138     
   GDM::BFGS:   highest Hinv e-value    33.0554132802809     
   GDM::      : max scaling in EWCs is          2.82842712474619     
   GDM::      : max rotation in step is        0.240502120579477     
   GDM::        grad.step =  -3.850324380161081E-003
   ------- Leaving GDM -- hopefully with a step in the right direction! --------
 
   67    -918.1308699052      4.33E-02  Gap = -191.99 eV  Normal BFGS step
 
   ------------------- Entering Geometric Direct Minimization ------------------
   GDM::trust : actual energy change is       -3.479890124253870E-003
   GDM::trust : predicted energy change was   -5.775486570241621E-003
   GDM::trust : updated trust radius is        0.330000000000000     
   GDM:         diagonal hessian shift is      0.000000000000000E+000
   GDM::PreWSS: input subspace size is                 19
   GDM::PreWSS: working subspace size set to           18
   GDM::PrEWSS: # of linearly dependent vectors =            0
   GDM::PrEWSS: Max dev from orthonormality =   7.964771203683441E-012
   GDM::BFGS:   lowest Hinv e-value    0.194892178686798     
   GDM::BFGS:   highest Hinv e-value    27.8251589296477     
   GDM::trust : dogleg step length is          0.330000000000000     
   GDM::      : max scaling in EWCs is          2.82842712474619     
[...]
 
    9    -918.2187602294      5.13E-06  Gap = 6.51 eV  Normal BFGS step
 
   ------------------- Entering Geometric Direct Minimization ------------------
   GDM::trust : actual energy change is       -4.774847184307873E-011
   GDM::trust : predicted energy change was   -4.237822547799759E-010
   GDM::trust : updated trust radius is        0.330000000000000     
   GDM:         diagonal hessian shift is      0.000000000000000E+000
   GDM::PreWSS: input subspace size is                  9
   GDM::PreWSS: working subspace size set to            9
   GDM::PrEWSS: # of linearly dependent vectors =            7
   GDM::PrEWSS: Max dev from orthonormality =   2.620122868668417E-012
   GDM::BFGS:   lowest Hinv e-value    0.213658175496110     
   GDM::BFGS:   highest Hinv e-value    3.37576675112517     
   GDM::      : max scaling in EWCs is          2.60189592836956     
   GDM::      : max rotation in step is        4.102948266126994E-006
   GDM::        grad.step =  -1.408070700728768E-010
   ------- Leaving GDM -- hopefully with a step in the right direction! --------
 
   10    -918.2187602295      5.82E-06  Gap = 6.51 eV  Normal BFGS step
 
   ------------------- Entering Geometric Direct Minimization ------------------
   GDM::trust : actual energy change is       -6.639311322942376E-011
   GDM::trust : predicted energy change was   -2.112106051093152E-010
   GDM::trust : updated trust radius is        0.330000000000000     
   GDM:         diagonal hessian shift is      0.000000000000000E+000
   GDM::PreWSS: input subspace size is                 10
   GDM::PreWSS: working subspace size set to           10
   GDM::PrEWSS: # of linearly dependent vectors =            9
   GDM::PrEWSS: Max dev from orthonormality =   4.954370247389761E-015
   GDM::BFGS:   lowest Hinv e-value    0.212828902824076     
   GDM::BFGS:   highest Hinv e-value    3.36532675021481     
   GDM::      : max scaling in EWCs is          2.60189718430414     
   GDM::      : max rotation in step is       -1.943683386586808E-006
   GDM::        grad.step =  -1.476209946030372E-011
   ------- Leaving GDM -- hopefully with a step in the right direction! --------
 
   11    -918.2187602295      1.01E-06  Gap = 6.51 eV  Normal BFGS step
 
   ------------------- Entering Geometric Direct Minimization ------------------
   GDM::trust : actual energy change is       -5.570655048359185E-012
   GDM::trust : predicted energy change was   -2.214314919045559E-011
   GDM::trust : updated trust radius is        0.330000000000000     
   GDM:         diagonal hessian shift is      0.000000000000000E+000
   GDM::PreWSS: input subspace size is                 11
   GDM::PreWSS: working subspace size set to           11
   GDM::PrEWSS: # of linearly dependent vectors =           10
   GDM::PrEWSS: Max dev from orthonormality =   1.732641807805635E-014
   GDM::BFGS:   lowest Hinv e-value    0.213661688392881     
   GDM::BFGS:   highest Hinv e-value    3.30117378548700     
   GDM::      : max scaling in EWCs is          2.60189609230172     
   GDM::      : max rotation in step is       -1.399378147047237E-006
   GDM::        grad.step =  -2.682026206765586E-012
   ------- Leaving GDM -- hopefully with a step in the right direction! --------
 
   12    -918.2187602295      3.80E-07  Gap = 6.51 eV  Normal BFGS step
 
   ------------------- Entering Geometric Direct Minimization ------------------
   GDM::trust : actual energy change is       -1.591615728102624E-012
   GDM::trust : predicted energy change was   -4.023039310148378E-012
   GDM::trust : updated trust radius is        0.330000000000000     
   GDM:         diagonal hessian shift is      0.000000000000000E+000
   GDM::PreWSS: input subspace size is                 12
   GDM::PreWSS: working subspace size set to           12
   GDM::PrEWSS: # of linearly dependent vectors =           11
   GDM::PrEWSS: Max dev from orthonormality =   9.152401059253634E-015
   GDM::BFGS:   lowest Hinv e-value    0.213102512920367     
   GDM::BFGS:   highest Hinv e-value    3.37156789939238     
   GDM::      : max scaling in EWCs is          2.60189609604359     
   GDM::      : max rotation in step is       -3.645905249524983E-007
   GDM::        grad.step =  -1.961709956155173E-013
   ------- Leaving GDM -- hopefully with a step in the right direction! --------
 
   13    -918.2187602295      1.52E-07  Gap = 6.51 eV  Normal BFGS step
 
   ------------------- Entering Geometric Direct Minimization ------------------
   GDM::trust : actual energy change is       -1.023181539494544E-012
   GDM::trust : predicted energy change was   -2.942564934232759E-013
   GDM::trust : updated trust radius is        0.330000000000000     
   GDM:         diagonal hessian shift is      0.000000000000000E+000
   GDM::PreWSS: input subspace size is                 13
   GDM::PreWSS: working subspace size set to           13
   GDM::PrEWSS: # of linearly dependent vectors =           12
   GDM::PrEWSS: Max dev from orthonormality =   2.987193825632062E-014
   GDM::BFGS:   lowest Hinv e-value    0.213121777302948     
   GDM::BFGS:   highest Hinv e-value    3.28950872128950     
   GDM::      : max scaling in EWCs is          2.60189607553627     
   GDM::      : max rotation in step is        1.429523387271394E-007
   GDM::        grad.step =  -4.327130277165871E-014
   ------- Leaving GDM -- hopefully with a step in the right direction! --------
 
   14    -918.2187602295      5.48E-08  Gap = 6.51 eV  Normal BFGS step
 
   ------------------- Entering Geometric Direct Minimization ------------------
   GDM::trust : actual energy change is        4.547473508864641E-013
   GDM::trust : predicted energy change was   -6.490695415748807E-014
   GDM::trust : updated trust radius is        0.108900000000000     
   GDM::WARNING energy changes are now smaller than effective accuracy.
   GDM::        calculation will continue, but THRESH should be increased
   GDM::        or SCF_CONVERGENCE decreased.
   GDM::        effective_thresh =   2.458641304436959E-009
   GDM:         diagonal hessian shift is      0.000000000000000E+000
   GDM::PreWSS: input subspace size is                 14
   GDM::PreWSS: working subspace size set to           14
   GDM::PrEWSS: # of linearly dependent vectors =           13
   GDM::PrEWSS: Max dev from orthonormality =   6.366088212139687E-014
   GDM::BFGS:   lowest Hinv e-value    0.213114592407535     
   GDM::BFGS:   highest Hinv e-value    3.27827288955776     
   GDM::      : max scaling in EWCs is          2.60189602767479     
   GDM::      : max rotation in step is        6.247831942459095E-008
   GDM::        grad.step =  -5.310934456191860E-015
   ------- Leaving GDM -- hopefully with a step in the right direction! --------
 
   15    -918.2187602295      1.59E-08  Gap = 19.92 eV  Normal BFGS step
 
   ------------------- Entering Geometric Direct Minimization ------------------
   GDM::trust : actual energy change is        5.684341886080801E-013
   GDM::trust : predicted energy change was   -7.966401684287789E-015
   GDM::trust : updated trust radius is        0.108900000000000     
   GDM::WARNING energy changes are now smaller than effective accuracy.
   GDM::        calculation will continue, but THRESH should be increased
   GDM::        or SCF_CONVERGENCE decreased.
   GDM::        effective_thresh =   2.458641304436959E-009
   GDM:         diagonal hessian shift is      0.000000000000000E+000
   GDM::PreWSS: input subspace size is                 15
   GDM::PreWSS: working subspace size set to           15
   GDM::PrEWSS: # of linearly dependent vectors =           14
   GDM::PrEWSS: Max dev from orthonormality =   1.057660903303059E-014
   GDM::BFGS:   lowest Hinv e-value    0.213111170897114     
   GDM::BFGS:   highest Hinv e-value    3.33720736389186     
   GDM::      : max scaling in EWCs is          2.60189600800227     
   GDM::      : max rotation in step is       -3.165006484930987E-008
   GDM::        grad.step =  -6.843423781922359E-016
   ------- Leaving GDM -- hopefully with a step in the right direction! --------
 
   16    -918.2187602295      1.09E-08  Gap = 19.92 eV  Normal BFGS step
 
   ------------------- Entering Geometric Direct Minimization ------------------
   GDM::trust : actual energy change is       -1.250555214937776E-012
   GDM::trust : predicted energy change was   -1.026513567288354E-015
   GDM::trust : updated trust radius is        0.330000000000000     
   GDM:         diagonal hessian shift is      0.000000000000000E+000
   GDM::PreWSS: input subspace size is                 16
   GDM::PreWSS: working subspace size set to           15
   GDM::PrEWSS: # of linearly dependent vectors =           13
   GDM::PrEWSS: Max dev from orthonormality =   1.810392113998915E-013
   GDM::BFGS:   lowest Hinv e-value    0.213684974241036     
   GDM::BFGS:   highest Hinv e-value    3.37633018169814     
   GDM::      : max scaling in EWCs is          2.60189600883954     
   GDM::      : max rotation in step is       -3.136818104769447E-008
   GDM::        grad.step =  -2.236173558553002E-016
   ------- Leaving GDM -- hopefully with a step in the right direction! --------
 
   17    -918.2187602295      7.26E-09 Convergence criterion met
 ---------------------------------------
 One-Electron    Energy = -1637.2193607656
 Total Coulomb   Energy =   606.2089117236
 Alpha Exchange  Energy =    -6.4518366071
 Beta  Exchange  Energy =    -6.2541907212
 DFT   Exchange  Energy =   -50.5833982650
 DFT Correlation Energy =    -2.4990966450
 Nuclear Repu.   Energy =   178.5802110507
 Nuclear Attr.   Energy = -2530.2771140655
 Kinetic         Energy =   893.0577532999
 <S^2> = 2.0101
 SCF time:  CPU 61.88 s  wall 6.68 s
 SCF   energy in the final basis set = -918.2187602295
 Total energy in the final basis set = -918.2187602295
 
 --------------------------------------------------------------
 
                    Orbital Energies (a.u.)
 --------------------------------------------------------------
 
 Alpha MOs
 -- Occupied --
-88.891 -88.891 -19.170  -7.967  -7.967  -5.938  -5.938  -5.923
 -5.923  -5.923  -5.923  -2.092  -1.314  -1.294  -1.285  -0.887
 -0.714  -0.706  -0.374  -0.371  -0.361  -0.344  -0.325  -0.321
 -0.308  -0.304  -0.294
 -- Virtual --
 -0.143  -0.106  -0.069  -0.030  -0.020  -0.010  -0.005   0.012
  0.023   0.066   0.066   0.068   0.077   0.091   0.094   0.096
  0.108   0.117   0.126   0.182   0.192   0.203   0.218   0.234
  0.243   0.255   0.278   0.296   0.319   0.501   0.502   0.502
  0.510   0.524   0.525   0.604   0.618   0.727   0.735   0.740
  0.741   0.778   0.804   0.805   0.817   0.848   0.908   1.160
  1.187   1.230   1.595   1.785   1.808   1.813   1.825   1.964
 12.446
 
 Beta MOs
 -- Occupied --
-88.886 -88.886 -19.166  -7.962  -7.962  -5.921  -5.921  -5.919
 -5.919  -5.919  -5.919  -2.094  -1.315  -1.296  -1.289  -0.879
 -0.670  -0.661  -0.358  -0.358  -0.355  -0.329  -0.296  -0.289
 -0.279
 -- Virtual --
 -0.205  -0.194  -0.143  -0.107  -0.069  -0.015  -0.012  -0.007
 -0.005   0.014   0.025   0.069   0.070   0.070   0.077   0.095
  0.095   0.100   0.110   0.121   0.132   0.182   0.193   0.206
  0.218   0.236   0.245   0.257   0.281   0.307   0.323   0.509
  0.511   0.530   0.531   0.539   0.544   0.618   0.635   0.777
  0.780   0.781   0.798   0.799   0.815   0.845   0.845   0.889
  0.927   1.162   1.194   1.236   1.599   1.790   1.812   1.819
  1.832   1.969  12.446
 --------------------------------------------------------------
 
          Ground-State Mulliken Net Atomic Charges

     Atom                 Charge (a.u.)    Spin (a.u.)
  --------------------------------------------------------
      1 Zr                    0.879702      -0.116065
      2 O                    -0.560879       0.116117
      3 S                    -0.159356       0.999985
      4 S                    -0.159467       0.999963
  --------------------------------------------------------
  Sum of atomic charges =     0.000000
  Sum of spin   charges =     2.000000

 -----------------------------------------------------------------
                    Cartesian Multipole Moments
 -----------------------------------------------------------------
    Charge (ESU x 10^10)
                 0.0000
    Dipole Moment (Debye)
         X       0.0001      Y       1.6755      Z       0.0000
       Tot       1.6755
    Quadrupole Moments (Debye-Ang)
        XX     -65.7276     XY       0.0122     YY     -61.5329
        XZ       0.0000     YZ       0.0000     ZZ     -51.2808
    Octopole Moments (Debye-Ang^2)
       XXX       0.0183    XXY     -22.0774    XYY       0.0625
       YYY       2.7703    XXZ       0.0000    XYZ       0.0000
       YYZ       0.0000    XZZ       0.0107    YZZ      -8.8693
       ZZZ       0.0000
    Hexadecapole Moments (Debye-Ang^3)
      XXXX    -992.8361   XXXY       0.4526   XXYY    -215.3045
      XYYY       0.3786   YYYY    -345.3568   XXXZ       0.0000
      XXYZ       0.0000   XYYZ       0.0000   YYYZ       0.0000
      XXZZ    -178.3605   XYZZ       0.1352   YYZZ     -66.7559
      XZZZ       0.0000   YZZZ       0.0000   ZZZZ     -72.1467
 -----------------------------------------------------------------
 Calculating analytic gradient of the SCF energy
 Gradient of SCF Energy
            1           2           3           4
    1  -0.0000603   0.0000301   0.0000077   0.0000225
    2  -0.0000003  -0.0000049  -0.0000039   0.0000091
    3   0.0000000   0.0000000   0.0000000  -0.0000000
 Max gradient component =       6.030E-05
 RMS gradient           =       2.088E-05
 Gradient time:  CPU 10.52 s  wall 1.70 s
 Geometry Optimization Parameters
   NAtoms,    NIC,     NZ,  NCons,   NDum,   NFix, NCnnct, MaxDiis
        4      17       0       0       0       0       0       0

 Cartesian Hessian Update
 Hessian Updated using BFGS Update


** GEOMETRY OPTIMIZATION IN CARTESIAN COORDINATES **
   Searching for a Minimum

   Optimization Cycle:  14

                       Coordinates (Angstroms)
     ATOM                X               Y               Z
      1  Zr       -0.0006692546   -0.1924706149    0.0000000000
      2  O        -0.0011563283   -1.9558706689    0.0000000000
      3  S         2.2749206589    0.7881633205    0.0000000000
      4  S        -2.2743550760    0.7927479633    0.0000000000
   Point Group: c1    Number of degrees of freedom:     6


   Energy is   -918.218760230


 Translations and Rotations Projected Out of Hessian

  5 Hessian modes will be used to form the next step
  Hessian Eigenvalues:
     0.008431    0.127064    0.979174    1.000101    1.018933

 Minimum Search - Taking Simple RFO Step
 Searching for Lamda that Minimizes Along All modes
 Value Taken    Lamda =   0.00000000
 Step Taken.  Stepsize is  0.001274

                             Maximum     Tolerance    Cnvgd?
         Gradient           0.000060      0.000300     YES
         Displacement       0.000545      0.001200     YES
         Energy change      0.000000      0.000001     YES


                       Distance Matrix (Angstroms)
             Zr(  1)   O (  2)   S (  3)
   O (  2)  1.763400
   S (  3)  2.477893  3.565144
   S (  4)  2.477963  3.566839  4.549278
 
 Final energy is   -918.218760229542     


 ******************************
 **  OPTIMIZATION CONVERGED  **
 ******************************

                       Coordinates (Angstroms)
     ATOM                X               Y               Z
      1  Zr       -0.0006692546   -0.1924706149    0.0000000000
      2  O        -0.0011563283   -1.9558706689    0.0000000000
      3  S         2.2749206589    0.7881633205    0.0000000000
      4  S        -2.2743550760    0.7927479633    0.0000000000

Z-matrix Print:
$molecule
0 3
Zr
O  1 1.763400
S  1 2.477893 2 113.328782
S  1 2.477963 2 113.411906 3 -180.000000 0
$end

 
 --------------------------------------------------------------
 
                    Orbital Energies (a.u.)
 --------------------------------------------------------------
 
 Alpha MOs
 -- Occupied --
-88.891 -88.891 -19.170  -7.967  -7.967  -5.938  -5.938  -5.923
 -5.923  -5.923  -5.923  -2.092  -1.314  -1.294  -1.285  -0.887
 -0.714  -0.706  -0.374  -0.371  -0.361  -0.344  -0.325  -0.321
 -0.308  -0.304  -0.294
 -- Virtual --
 -0.143  -0.106  -0.069  -0.030  -0.020  -0.010  -0.005   0.012
  0.023   0.066   0.066   0.068   0.077   0.091   0.094   0.096
  0.108   0.117   0.126   0.182   0.192   0.203   0.218   0.234
  0.243   0.255   0.278   0.296   0.319   0.501   0.502   0.502
  0.510   0.524   0.525   0.604   0.618   0.727   0.735   0.740
  0.741   0.778   0.804   0.805   0.817   0.848   0.908   1.160
  1.187   1.230   1.595   1.785   1.808   1.813   1.825   1.964
 12.446
 
 Beta MOs
 -- Occupied --
-88.886 -88.886 -19.166  -7.962  -7.962  -5.921  -5.921  -5.919
 -5.919  -5.919  -5.919  -2.094  -1.315  -1.296  -1.289  -0.879
 -0.670  -0.661  -0.358  -0.358  -0.355  -0.329  -0.296  -0.289
 -0.279
 -- Virtual --
 -0.205  -0.194  -0.143  -0.107  -0.069  -0.015  -0.012  -0.007
 -0.005   0.014   0.025   0.069   0.070   0.070   0.077   0.095
  0.095   0.100   0.110   0.121   0.132   0.182   0.193   0.206
  0.218   0.236   0.245   0.257   0.281   0.307   0.323   0.509
  0.511   0.530   0.531   0.539   0.544   0.618   0.635   0.777
  0.780   0.781   0.798   0.799   0.815   0.845   0.845   0.889
  0.927   1.162   1.194   1.236   1.599   1.790   1.812   1.819
  1.832   1.969  12.446
 --------------------------------------------------------------
 
          Ground-State Mulliken Net Atomic Charges

     Atom                 Charge (a.u.)    Spin (a.u.)
  --------------------------------------------------------
      1 Zr                    0.879702      -0.116065
      2 O                    -0.560879       0.116117
      3 S                    -0.159356       0.999985
      4 S                    -0.159467       0.999963
  --------------------------------------------------------
  Sum of atomic charges =     0.000000
  Sum of spin   charges =     2.000000

 -----------------------------------------------------------------
                    Cartesian Multipole Moments
 -----------------------------------------------------------------
    Charge (ESU x 10^10)
                 0.0000
    Dipole Moment (Debye)
         X       0.0001      Y       1.6755      Z       0.0000
       Tot       1.6755
    Quadrupole Moments (Debye-Ang)
        XX     -65.7276     XY       0.0122     YY     -61.5329
        XZ       0.0000     YZ       0.0000     ZZ     -51.2808
    Octopole Moments (Debye-Ang^2)
       XXX       0.0183    XXY     -22.0774    XYY       0.0625
       YYY       2.7703    XXZ       0.0000    XYZ       0.0000
       YYZ       0.0000    XZZ       0.0107    YZZ      -8.8693
       ZZZ       0.0000
    Hexadecapole Moments (Debye-Ang^3)
      XXXX    -992.8361   XXXY       0.4526   XXYY    -215.3045
      XYYY       0.3786   YYYY    -345.3568   XXXZ       0.0000
      XXYZ       0.0000   XYYZ       0.0000   YYYZ       0.0000
      XXZZ    -178.3605   XYZZ       0.1352   YYZZ     -66.7559
      XZZZ       0.0000   YZZZ       0.0000   ZZZZ     -72.1467
 -----------------------------------------------------------------
Archival summary:
1\1\hpc3454\OPT\ProcedureUnspecified\BasisUnspecified\r121(\liqiuy\FriJan1719:17:592020FriJan1719:17:592020\0\\#,OPT,ProcedureUnspecified,BasisUnspecified,\\28,3\Zr\O,1,1.7634\S,1,2.47789,2,113.329\S,1,2.47796,2,113.412,3,-180,0\\\@

 Total job time:  154.70s(wall), 1242.14s(cpu) 
 Fri Jan 17 19:17:59 2020

        *************************************************************
        *                                                           *
        *  Thank you very much for using Q-Chem.  Have a nice day.  *
        *                                                           *
        *************************************************************


0 sent ACK to 0 
now end server 0 ... 
cleanup process ... done
