
Running Job 1 of 2 ZrOx.in
qchem ZrOx.in_9847.0 /tmp/5732593.priya/ZrOx.save/ 1
/usr/usc/qchem/4.4/bin/mpi/mpirun_qchem -machinefile /usr/usc/qchem/4.4/bin/mpi/machines -np 1 /usr/usc/qchem/4.4/exe/qcprog.exe ZrOx.in_9847.0 /tmp/5732593.priya/ZrOx.save/

Process 0 of 1 is on hpc3451.hpcc.usc.edu - thread support 0
initial socket setup ...start
initial socket setup ...done 
now start server 0 ... 
Check license passed

                  Welcome to Q-Chem
     A Quantum Leap Into The Future Of Chemistry


 Q-Chem 4.4, Q-Chem, Inc., Pleasanton, CA (2016)

 Y. Shao,  Z. Gan,  E. Epifanovsky,  A. T. B. Gilbert,  M. Wormit,  
 J. Kussmann,  A. W. Lange,  A. Behn,  J. Deng,  X. Feng,  D. Ghosh,  
 M. Goldey,  P. R. Horn,  L. D. Jacobson,  I. Kaliman,  F.Rob,  
 R. Z. Khaliullin,  T. Kus,  A. Landau,  J. Liu,  E. I. Proynov,  Y. M. Rhee,  
 R. M. Richard,  M. A. Rohrdanz,  R. P. Steele,  E. J. Sundstrom,  
 H. L. Woodcock III,  P. M. Zimmerman,  D. Zuev,  B. Albrecht,  E. Alguire,  
 B. Austin,  S. A. Baeppler,  G. J. O. Beran,  Y. A. Bernard,  E. Berquist,  
 K. Brandhorst,  K. B. Bravaya,  S. T. Brown,  D. Casanova,  C.-M. Chang,  
 Y. Chen,  S. H. Chien,  K. D. Closser,  M. P. Coons,  D. L. Crittenden,  
 S. Dasgupta,  M. Diedenhofen,  R. A. DiStasio Jr.,  H. Do,  A. D. Dutoi,  
 R. G. Edgar,  P.-T. Fang,  S. Fatehi,  Q. Feng,  L. Fusti-Molnar,  
 A. Ghysels,  A. Golubeva-Zadorozhnaya,  J. Gomes,  A. Gunina,  
 M. W. D. Hanson-Heine,  P. H. P. Harbach,  A. W. Hauser,  E. G. Hohenstein,  
 Z. C. Holden,  K. Hui,  T.-C. Jagau,  H. Ji,  B. Kaduk,  K. Khistyaev,  
 Jaehoon Kim,  Jihan Kim,  R. A. King,  P. Klunzinger,  D. Kosenkov,  
 T. Kowalczyk,  C. M. Krauter,  A. Kunitsa,  K. U. Lao,  A. Laurent,  
 K. V. Lawler,  D. Lefrancois,  S. Lehtola,  S. V. Levchenko,  C. Y. Lin,  
 Y.-S. Lin,  F. Liu,  E. Livshits,  R. C. Lochan,  A. Luenser,  P. Manohar,  
 S. F. Manzer,  S.-P. Mao,  Y. Mao,  N. Mardirossian,  A. V. Marenich,  
 L. A. Martinez-Martinez,  S. A. Maurer,  N. J. Mayhall,  J.-M. Mewes,  
 A. F. Morrison,  K. Nanda,  C. M. Oana,  R. Olivares-Amaya,  D. P. O'Neill,  
 J. A. Parkhill,  T. M. Perrine,  R. Peverati,  P. A. Pieniazek,  F. Plasser,  
 A. Prociuk,  D. R. Rehn,  E. Rosta,  N. J. Russ,  N. Sergueev,  
 S. M. Sharada,  S. Sharma,  D. W. Small,  A. Sodt,  T. Stauch,  T. Stein,  
 D. Stuck,  Y.-C. Su,  A. J. W. Thom,  T. Tsuchimochi,  L. Vogt,  O. Vydrov,  
 T. Wang,  M. A. Watson,  J. Wenzel,  A. White,  C. F. Williams,  
 V. Vanovschi,  S. Yeganeh,  S. R. Yost,  Z.-Q. You,  I. Y. Zhang,  X. Zhang,  
 Y. Zhao,  B. R. Brooks,  G. K. L. Chan,  D. M. Chipman,  C. J. Cramer,  
 W. A. Goddard III,  M. S. Gordon,  W. J. Hehre,  A. Klamt,  
 H. F. Schaefer III,  M. W. Schmidt,  C. D. Sherrill,  D. G. Truhlar,  
 A. Warshel,  X. Xu,  A. Aspuru-Guzik,  R. Baer,  A. T. Bell,  N. A. Besley,  
 J.-D. Chai,  A. Dreuw,  B. D. Dunietz,  T. R. Furlani,  S. R. Gwaltney,  
 C.-P. Hsu,  Y. Jung,  J. Kong,  D. S. Lambrecht,  W. Liang,  C. Ochsenfeld,  
 V. A. Rassolov,  L. V. Slipchenko,  J. E. Subotnik,  T. Van Voorhis,  
 J. M. Herbert,  A. I. Krylov,  P. M. W. Gill,  M. Head-Gordon

 Contributors to earlier versions of Q-Chem not listed above: 
 R. D. Adamson,  J. Baker,  E. F. C. Byrd,  A. K. Chakraborty,  C.-L. Cheng,  
 H. Dachsel,  R. J. Doerksen,  G. Hawkins,  A. Heyden,  S. Hirata,  
 G. Kedziora,  F. J. Keil,  C. Kelley,  P. P. Korambath,  W. Kurlancheek,  
 A. M. Lee,  M. S. Lee,  D. Liotard,  I. Lotan,  P. E. Maslen,  N. Nair,  
 D. Neuhauser,  R. Olson,  B. Peters,  J. Ritchie,  N. E. Schultz,  
 N. Shenvi,  A. C. Simmonett,  K. S. Thanthiriwatte,  Q. Wu,  W. Zhang

 Please cite Q-Chem as follows:
 Y. Shao et al., Mol. Phys. 113, 184-215 (2015)
 DOI: 10.1080/00268976.2014.952696

 Q-Chem 4.4.1 for Intel X86 Linux

 Parts of Q-Chem use Armadillo 5.200.1 (Boston Tea Smuggler).
 http://arma.sourceforge.net/

 Q-Chem begins on Fri Jan 17 19:17:05 2020  

Host: 
0

     Scratch files written to /tmp/5732593.priya/ZrOx.save//
 Jul2716 11668_ 21447  21445 5558   
 Parallel job on  1  processors
Processing $rem in /usr/usc/qchem/4.4/config/preferences.
 MEM_TOTAL  2000 

Checking the input file for inconsistencies... 	...done.

--------------------------------------------------------------
User input:
--------------------------------------------------------------
$comment
--------------------------------------------------------
A SINGLE POINT DFT CALCULATION WITH BASIS SET PROJECTION
--------------------------------------------------------
$end

$molecule
0 3
Zr -1.03167 -0.38580 0.00005
Zr 1.03117 0.38545 0.00005
O -1.99456 1.04819 0.00047
O 1.99623 -1.04705 0.00047
$end

$rem
JOBTYPE   SP
METHOD   B3LYP
BASIS   GEN
ECP   GEN
MAX_SCF_CYCLES   200
SCF_CONVERGENCE 8
SCF_PRINT 1
PDB_PRINT 2
THRESH 14
VARTHRESH 14
INCDFT FALSE
SYMMETRY False
Sym_ignore True
SCF_ALGORITHM GDM
XC_GRID 000128000302
DFT_D           EMPIRICAL_GRIMME3
DFT_D3_S6       1000
DFT_D3_RS6     1261
DFT_D3_S8      1703
DFT_D3_3BODY    FALSE
$end

$basis
O
6-31+G**
****
S
6-31+G**
****
Zr
LanL2DZ
****
$end

$ecp
Zr
LanL2DZ
****
$end

--------------------------------------------------------------
 ----------------------------------------------------------------
             Standard Nuclear Orientation (Angstroms)
    I     Atom           X                Y                Z
 ----------------------------------------------------------------
    1      Zr     -1.0316700000    -0.3858000000     0.0000500000
    2      Zr      1.0311700000     0.3854500000     0.0000500000
    3      O      -1.9945600000     1.0481900000     0.0004700000
    4      O       1.9962300000    -1.0470500000     0.0004700000
 ----------------------------------------------------------------
 Nuclear Repulsion Energy =   133.7286974955 hartrees
 There are       21 alpha and       19 beta electrons

 Q-Chem warning in module /home/scratch/svnadmin/11668_zgan/qchem/forms1/BasisType.C, line 1419:

 Setting pure/cartesian flag to 2111 for general basis


 Requested basis set is non-standard
 There are 26 shells and 80 basis functions

 Total QAlloc Memory Limit   2000 MB
 Mega-Array Size        61 MB
 MEM_STATIC part        62 MB

                       Distance Matrix (Angstroms)
             Zr(  1)   Zr(  2)   O (  3)
   Zr(  2)  2.202302
   O (  3)  1.727277  3.097461
   O (  4)  3.099263  1.727251  4.507376
 
 A cutoff of  1.0D-14 yielded    343 shell pairs
 There are      3279 function pairs (      3800 Cartesian)
 
 -------------------------------------------------------
 OpenMP Integral Computing Module                       
 Release: version 1.0, May 2013, Q-Chem Inc. Pittsburgh 
 -------------------------------------------------------
 Integral Job Info:
 Integral job number is                      11
 Integral operator is                         1
 short-range coefficients                     0
 long-range coefficients              100000000
 Omega coefficients                           0
 if combine SR and LR in K                    0
 Integral screening is                        0
 Integral computing path is                   2
 max size of driver memory is            800000
 size of driver memory is                593474
 size of scratch memory is             11771240
 max col of scratch BK array               1296
 max len of scratch array in speh3          155
 max len of scratch index in speh4           18
 max int batch size is                      520
 min int batch size is                       52
 fixed nKL is                                52
 max L of basis functions is                  2
 order of int derivative is                   0
 number of shells is                         26
 number of basis is                          86
 number of cartesian basis is                86
 number of contracted shell pairs           343
 number of primitive shell pairs           1694
 maxK2 (contraction) of shell pair           36
 max number of K2 of shell pair               1
 max number of CS2 of shell pair             16
 max number of PS2 of shell pair            120
 mem total for path MDJ                   21952
 -------------------------------------------------------
 Requested basis set is non-standard
 Compound shells will be simplified
 There are 32 shells and 80 basis functions
 A cutoff of  1.0D-14 yielded    513 shell pairs
 There are      3261 function pairs (      3782 Cartesian)
 Smallest overlap matrix eigenvalue = 8.89E-04

 Scale SEOQF with 1.000000e-01/1.000000e-01/1.000000e-01

 Standard Electronic Orientation quadrupole field applied
 Nucleus-field energy     =     0.0000000047 hartrees
 Guess MOs from core Hamiltonian diagonalization
 An unrestricted hybrid HF-DFT SCF calculation will be
 performed using Geometric Direct Minimization
 Exchange:     0.2000 Hartree-Fock + 0.0800 Slater + 0.7200 B88
 Correlation:  0.1900 VWN1RPA + 0.8100 LYP
 Using Euler-Maclaurin-Lebedev (128,302) quadrature formula
 Dispersion:   Grimme D3
 SCF converges when RMS gradient is below 1.0E-08
 Maximum number of minimization steps = 200
 using 12 threads for integral computing 
 -------------------------------------------------------
 OpenMP BLAS3 based DFT computing Module                
 Release: version 1.0, May 2013, Q-Chem Inc. Pittsburgh 
 -------------------------------------------------------
 
   ------------------- Entering Geometric Direct Minimization ------------------
   GDM:         diagonal hessian shift is      0.000000000000000E+000
   GDM::PreWSS: input subspace size is                  1
   GDM::PreWSS: working subspace size set to            1
   GDM::PrEWSS: # of linearly dependent vectors =            0
   GDM::PrEWSS: Max dev from orthonormality =   0.000000000000000E+000
   GDM::BFGS:   lowest Hinv e-value     1.00000000000000     
   GDM::BFGS:   highest Hinv e-value    1.00000000000000     
   GDM::      : max scaling in EWCs is          1.41421356237309     
   GDM::      : max rotation in step is       -0.146594759330625     
   GDM::        grad.step =   -2.36134853120708     
   ------- Leaving GDM -- hopefully with a step in the right direction! --------
 
 ---------------------------------------
  Cycle       Energy        RMS Gradient
 ---------------------------------------
    1    -227.1352440447      2.59E+00  Gap = 0.00 eV  Descent step
 
   ------------------- Entering Geometric Direct Minimization ------------------
   GDM::trust : actual energy change is        -2.31993091449993     
   GDM::trust : predicted energy change was   -0.163350000000000     
   GDM::trust : updated trust radius is        0.330000000000000     
   GDM:         diagonal hessian shift is      0.000000000000000E+000
   GDM::PreWSS: input subspace size is                  2
   GDM::PreWSS: working subspace size set to            2
   GDM::PrEWSS: # of linearly dependent vectors =            0
   GDM::PrEWSS: Max dev from orthonormality =   2.731148640577885E-014
   GDM::BFGS:   lowest Hinv e-value    0.519921721828963     
   GDM::BFGS:   highest Hinv e-value    3.08427469152790     
   GDM::      : max scaling in EWCs is          1.41421356237309     
   GDM::      : max rotation in step is        7.270422528617114E-002
   GDM::        grad.step =   -2.18975711109435     
   ------- Leaving GDM -- hopefully with a step in the right direction! --------
 
    2    -229.4551749592      1.52E+00  Gap = 70.46 eV  Descent step
 
   ------------------- Entering Geometric Direct Minimization ------------------
   GDM::trust : actual energy change is        -2.16602207983576     
   GDM::trust : predicted energy change was   -0.131968795591994     
   GDM::trust : updated trust radius is        0.330000000000000     
   GDM::search:  On step            1 .  The current bracket is:
       left   : x =  0.0000E+00, e =      -229.4551749592, g = -0.7687E+01
       current: x =  0.2849E+00, e =      -231.6211970391, g = -0.7477E+01
       right  : x =  0.1000E+04, e =      1000.0000000000, g =  0.1000E+04
       next   : x =  0.2849E+01
   GDM::      : max rotation in step is        0.727042252861711     
   ------- Leaving GDM -- hopefully with a step in the right direction! --------
 
    3    -231.6211970391      7.43E-01  Gap = 70.46 eV  Line search: understep
 
   ------------------- Entering Geometric Direct Minimization ------------------
   GDM::trust : actual energy change is        -9.67375402198977     
   GDM::trust : predicted energy change was   -0.131968795591994     
   GDM::trust : updated trust radius is        0.330000000000000     
   GDM:         diagonal hessian shift is      0.000000000000000E+000
   GDM::PreWSS: input subspace size is                  3
   GDM::PreWSS: working subspace size set to            3
   GDM::PrEWSS: # of linearly dependent vectors =            0
   GDM::PrEWSS: Max dev from orthonormality =   3.486100297322992E-014
   GDM::BFGS:   lowest Hinv e-value    0.558309801121571     
   GDM::BFGS:   highest Hinv e-value    1.70388016921737     
   GDM::      : max scaling in EWCs is          2.82842712474619     
   GDM::      : max rotation in step is       -0.161595635438721     
   GDM::        grad.step =   -1.16000987032467     
   ------- Leaving GDM -- hopefully with a step in the right direction! --------
 
    4    -239.1289289812      1.02E+00  Gap = 70.46 eV  Descent step
 
   ------------------- Entering Geometric Direct Minimization ------------------
   GDM::trust : actual energy change is        -1.10363781021883     
   GDM::trust : predicted energy change was   -0.179334104879411     
   GDM::trust : updated trust radius is        0.330000000000000     
   GDM:         diagonal hessian shift is      0.000000000000000E+000
   GDM::PreWSS: input subspace size is                  4
   GDM::PreWSS: working subspace size set to            4
   GDM::PrEWSS: # of linearly dependent vectors =            0
   GDM::PrEWSS: Max dev from orthonormality =   5.332539965152705E-014
   GDM::BFGS:   lowest Hinv e-value    0.403314381200605     
   GDM::BFGS:   highest Hinv e-value    2.55730571954653     
   GDM::      : max scaling in EWCs is          2.82842712474619     
   GDM::      : max rotation in step is        0.149312794886041     
   GDM::        grad.step =  -0.929380694093178     
   ------- Leaving GDM -- hopefully with a step in the right direction! --------
 
    5    -240.2325667914      7.28E-01  Gap = 70.46 eV  Descent step
 
   ------------------- Entering Geometric Direct Minimization ------------------
   GDM::trust : actual energy change is       -0.879214956469042     
   GDM::trust : predicted energy change was   -0.149027894796125     
   GDM::trust : updated trust radius is        0.330000000000000     
   GDM:         diagonal hessian shift is      0.000000000000000E+000
   GDM::PreWSS: input subspace size is                  5
   GDM::PreWSS: working subspace size set to            5
   GDM::PrEWSS: # of linearly dependent vectors =            0
   GDM::PrEWSS: Max dev from orthonormality =   1.170308641662565E-012
   GDM::BFGS:   lowest Hinv e-value    0.480869022291621     
   GDM::BFGS:   highest Hinv e-value    2.00255025162181     
   GDM::      : max scaling in EWCs is          2.82842712474619     
   GDM::      : max rotation in step is       -0.150006629555324     
   GDM::        grad.step =  -0.741807803775671     
   ------- Leaving GDM -- hopefully with a step in the right direction! --------
 
    6    -241.1117817479      5.76E-01  Gap = 70.46 eV  Descent step
 
   ------------------- Entering Geometric Direct Minimization ------------------
   GDM::trust : actual energy change is       -0.689644818794278     
   GDM::trust : predicted energy change was   -0.148990897085633     
   GDM::trust : updated trust radius is        0.330000000000000     
   GDM:         diagonal hessian shift is      0.000000000000000E+000
   GDM::PreWSS: input subspace size is                  6
   GDM::PreWSS: working subspace size set to            6
   GDM::PrEWSS: # of linearly dependent vectors =            0
   GDM::PrEWSS: Max dev from orthonormality =   8.140536855716363E-013
   GDM::BFGS:   lowest Hinv e-value    0.510995686824423     
   GDM::BFGS:   highest Hinv e-value    1.99989125841908     
   GDM::      : max scaling in EWCs is          2.82842712474619     
   GDM::      : max rotation in step is       -0.124037534686227     
   GDM::        grad.step =  -0.594208924431723     
   ------- Leaving GDM -- hopefully with a step in the right direction! --------
 
    7    -241.8014265667      4.61E-01  Gap = 70.46 eV  Descent step
 
   ------------------- Entering Geometric Direct Minimization ------------------
   GDM::trust : actual energy change is       -0.544881318994555     
   GDM::trust : predicted energy change was   -0.153095111240127     
   GDM::trust : updated trust radius is        0.330000000000000     
   GDM:         diagonal hessian shift is      0.000000000000000E+000
   GDM::PreWSS: input subspace size is                  7
   GDM::PreWSS: working subspace size set to            7
   GDM::PrEWSS: # of linearly dependent vectors =            0
   GDM::PrEWSS: Max dev from orthonormality =   1.149191852789500E-012
   GDM::BFGS:   lowest Hinv e-value    0.529084748706711     
   GDM::BFGS:   highest Hinv e-value    2.08100041459044     
   GDM::      : max scaling in EWCs is          2.82842712474619     
   GDM::      : max rotation in step is       -0.299712766178136     
   GDM::        grad.step =  -0.486994396518329     
   ------- Leaving GDM -- hopefully with a step in the right direction! --------
 
    8    -242.3463078857      4.74E-01  Gap = 70.46 eV  Descent step
 
   ------------------- Entering Geometric Direct Minimization ------------------
   GDM::trust : actual energy change is       -0.439941296090552     
   GDM::trust : predicted energy change was   -0.147901809792712     
   GDM::trust : updated trust radius is        0.330000000000000     
   GDM:         diagonal hessian shift is      0.000000000000000E+000
   GDM::PreWSS: input subspace size is                  8
   GDM::PreWSS: working subspace size set to            8
   GDM::PrEWSS: # of linearly dependent vectors =            0
   GDM::PrEWSS: Max dev from orthonormality =   1.269435945250308E-012
   GDM::BFGS:   lowest Hinv e-value    0.487247943334935     
   GDM::BFGS:   highest Hinv e-value    2.11239968431918     
   GDM::      : max scaling in EWCs is          2.82842712474619     
   GDM::      : max rotation in step is       -0.223738100254978     
   GDM::        grad.step =  -0.356121172557332     
   ------- Leaving GDM -- hopefully with a step in the right direction! --------
 
    9    -242.7862491818      2.90E-01  Gap = 70.46 eV  Descent step
 
   ------------------- Entering Geometric Direct Minimization ------------------
   GDM::trust : actual energy change is       -0.300814012504475     
   GDM::trust : predicted energy change was   -0.157508125393686     
   GDM::trust : updated trust radius is        0.330000000000000     
   GDM:         diagonal hessian shift is      0.000000000000000E+000
   GDM::PreWSS: input subspace size is                  9
   GDM::PreWSS: working subspace size set to            9
   GDM::PrEWSS: # of linearly dependent vectors =            0
   GDM::PrEWSS: Max dev from orthonormality =   7.697783382942802E-012
   GDM::BFGS:   lowest Hinv e-value    0.596207576739103     
   GDM::BFGS:   highest Hinv e-value    2.15205839797124     
   GDM::      : max scaling in EWCs is          2.82842712474619     
   GDM::      : max rotation in step is       -8.563933358556311E-002
   GDM::        grad.step =  -0.233793173462739     
   ------- Leaving GDM -- hopefully with a step in the right direction! --------
 
   10    -243.0870631943      1.82E-01  Gap = 70.46 eV  Descent step
 
   ------------------- Entering Geometric Direct Minimization ------------------
   GDM::trust : actual energy change is       -0.179614507801830     
   GDM::trust : predicted energy change was   -0.161728630986578     
   GDM::trust : updated trust radius is        0.330000000000000     
   GDM:         diagonal hessian shift is      0.000000000000000E+000
   GDM::PreWSS: input subspace size is                 10
   GDM::PreWSS: working subspace size set to           10
   GDM::PrEWSS: # of linearly dependent vectors =            0
   GDM::PrEWSS: Max dev from orthonormality =   1.162882984351299E-011
   GDM::BFGS:   lowest Hinv e-value    0.616073584723354     
   GDM::BFGS:   highest Hinv e-value    2.17630381372414     
   GDM::      : max scaling in EWCs is          2.82842712474619     
   GDM::      : max rotation in step is       -7.034097620360318E-002
   GDM::        grad.step =  -0.124077987238571     
   ------- Leaving GDM -- hopefully with a step in the right direction! --------
 
   11    -243.2666777021      7.59E-02  Gap = 70.46 eV  Descent step
 
   ------------------- Entering Geometric Direct Minimization ------------------
   GDM::trust : actual energy change is       -7.128924604424469E-002
   GDM::trust : predicted energy change was   -0.160544055282007     
   GDM::trust : updated trust radius is        0.330000000000000     
   GDM:         diagonal hessian shift is      0.000000000000000E+000
   GDM::PreWSS: input subspace size is                 11
   GDM::PreWSS: working subspace size set to           11
   GDM::PrEWSS: # of linearly dependent vectors =            0
   GDM::PrEWSS: Max dev from orthonormality =   4.989135493627117E-011
   GDM::BFGS:   lowest Hinv e-value    0.619935875063310     
   GDM::BFGS:   highest Hinv e-value    2.19531173505612     
   GDM::      : max scaling in EWCs is          2.82842712474619     
   GDM::      : max rotation in step is       -4.507367939009090E-002
   GDM::        grad.step =  -6.124185687002978E-003
   ------- Leaving GDM -- hopefully with a step in the right direction! --------
 
   12    -243.3379669481      1.49E-02  Gap = 70.46 eV  Normal BFGS step
 
   ------------------- Entering Geometric Direct Minimization ------------------
   GDM::trust : actual energy change is       -1.610064888836860E-003
   GDM::trust : predicted energy change was   -9.186278530504471E-003
   GDM::trust : updated trust radius is        0.330000000000000     
   GDM:         diagonal hessian shift is      0.000000000000000E+000
   GDM::PreWSS: input subspace size is                 12
   GDM::PreWSS: working subspace size set to           12
   GDM::PrEWSS: # of linearly dependent vectors =            0
   GDM::PrEWSS: Max dev from orthonormality =   4.102388567739368E-011
   GDM::BFGS:   lowest Hinv e-value    0.306100836517213     
   GDM::BFGS:   highest Hinv e-value    2.39280345291296     
   GDM::      : max scaling in EWCs is          2.82842712474619     
   GDM::      : max rotation in step is        4.956242457079568E-002
   GDM::        grad.step =  -4.993225887846117E-003
   ------- Leaving GDM -- hopefully with a step in the right direction! --------
 
   13    -243.3395770130      2.30E-02  Gap = 70.46 eV  Normal BFGS step
 
   ------------------- Entering Geometric Direct Minimization ------------------
   GDM::trust : actual energy change is        2.395481049575210E-004
   GDM::trust : predicted energy change was   -7.489838831769177E-003
   GDM::trust : updated trust radius is        0.108900000000000     
   GDM::search:  On step            1 .  The current bracket is:
       left   : x =  0.0000E+00, e =      -243.3395770130, g = -0.5064E-01
       current: x =  0.9861E-01, e =      -243.3393374649, g =  0.5654E-01
       right  : x =  0.1000E+04, e =      1000.0000000000, g =  0.1000E+04
       next   : x =  0.4705E-01
   GDM::      : max rotation in step is        2.364676763908195E-002
   ------- Leaving GDM -- hopefully with a step in the right direction! --------
 
   14    -243.3393374649      3.59E-03  Gap = 70.46 eV  Line search: overstep
 
   ------------------- Entering Geometric Direct Minimization ------------------
   GDM::trust : actual energy change is       -1.203528698795253E-003
   GDM::trust : predicted energy change was   -7.489838831769177E-003
   GDM::trust : updated trust radius is        0.108900000000000     
   GDM:         diagonal hessian shift is      0.000000000000000E+000
   GDM::PreWSS: input subspace size is                 13
   GDM::PreWSS: working subspace size set to           13
   GDM::PrEWSS: # of linearly dependent vectors =            0
   GDM::PrEWSS: Max dev from orthonormality =   8.826919403737143E-011
   GDM::BFGS:   lowest Hinv e-value    0.220548043516086     
   GDM::BFGS:   highest Hinv e-value    1.90267287495272     
   GDM::      : max scaling in EWCs is          2.82842712474619     
   GDM::      : max rotation in step is        7.003408466223233E-002
   GDM::        grad.step =  -1.297222029086812E-003
   ------- Leaving GDM -- hopefully with a step in the right direction! --------
 
   15    -243.3407805417      2.41E-02  Gap = 70.46 eV  Normal BFGS step
 
   ------------------- Entering Geometric Direct Minimization ------------------
   GDM::trust : actual energy change is       -1.276663801775157E-003
   GDM::trust : predicted energy change was   -1.945833043630217E-003
   GDM::trust : updated trust radius is        0.330000000000000     
   GDM::search:  On step            1 .  The current bracket is:
       left   : x =  0.0000E+00, e =      -243.3407805417, g = -0.1626E-01
       current: x =  0.7978E-01, e =      -243.3420572055, g = -0.1563E-01
       right  : x =  0.1000E+04, e =      1000.0000000000, g =  0.1000E+04
       next   : x =  0.7978E+00
   GDM::      : max rotation in step is        0.700340846622323     
   ------- Leaving GDM -- hopefully with a step in the right direction! --------
 
   16    -243.3420572055      7.89E-04  Gap = 70.46 eV  Line search: understep
 
   ------------------- Entering Geometric Direct Minimization ------------------
   GDM::trust : actual energy change is        1.378482740761910E-003
   GDM::trust : predicted energy change was   -1.945833043630217E-003
   GDM::trust : updated trust radius is        0.108900000000000     
   GDM::search:  On step            2 .  The current bracket is:
       left   : x =  0.7978E-01, e =      -243.3420572055, g = -0.1563E-01
       current: x =  0.7978E+00, e =      -243.3394020590, g =  0.3970E-01
       right  : x =  0.1000E+04, e =         0.0000000000, g =  0.0000E+00
       next   : x =  0.2903E+00
   GDM::      : max rotation in step is        0.254851395614913     
   ------- Leaving GDM -- hopefully with a step in the right direction! --------
 
   17    -243.3394020590      1.51E-02  Gap = 70.46 eV  Line search: overstep
 
   ------------------- Entering Geometric Direct Minimization ------------------
   GDM::trust : actual energy change is       -4.066615280834185E-003
   GDM::trust : predicted energy change was   -1.945833043630217E-003
   GDM::trust : updated trust radius is        0.108900000000000     
   GDM:         diagonal hessian shift is      0.000000000000000E+000
   GDM::PreWSS: input subspace size is                 14
   GDM::PreWSS: working subspace size set to           14
   GDM::PrEWSS: # of linearly dependent vectors =            0
   GDM::PrEWSS: Max dev from orthonormality =   3.511558752111732E-011
   GDM::BFGS:   lowest Hinv e-value    5.696764941839437E-002
   GDM::BFGS:   highest Hinv e-value    96.7613118331341     
   GDM::      : max scaling in EWCs is          2.82842712474619     
   GDM::      : max rotation in step is        0.181086209437728     
   GDM::        grad.step =  -1.779174615335267E-002
   ------- Leaving GDM -- hopefully with a step in the right direction! --------
 
   18    -243.3448471570      9.61E-02  Gap = 70.46 eV  Descent step
 
   ------------------- Entering Geometric Direct Minimization ------------------
   GDM::trust : actual energy change is       -7.285936482134048E-003
   GDM::trust : predicted energy change was   -0.110147791983454     
   GDM::trust : updated trust radius is        0.330000000000000     
   GDM:         diagonal hessian shift is      0.000000000000000E+000
   GDM::PreWSS: input subspace size is                 15
   GDM::PreWSS: working subspace size set to           15
   GDM::PrEWSS: # of linearly dependent vectors =            0
   GDM::PrEWSS: Max dev from orthonormality =   1.528045051601978E-011
   GDM::BFGS:   lowest Hinv e-value    0.162565863145773     
   GDM::BFGS:   highest Hinv e-value    169.654746088142     
   GDM::trust : dogleg step length is          0.330000000000000     
   GDM::      : max scaling in EWCs is          2.82842712474619     
   GDM::      : max rotation in step is        0.721388929503024     
   GDM::        grad.step =  -8.014005690000714E-002
   ------- Leaving GDM -- hopefully with a step in the right direction! --------
 
   19    -243.3521330935      1.53E-01  Gap = 70.46 eV  Dog-leg BFGS step
 
   ------------------- Entering Geometric Direct Minimization ------------------
   GDM::trust : actual energy change is        1.569819505701275E-002
   GDM::trust : predicted energy change was   -0.245024483614685     
   GDM::trust : updated trust radius is        0.108900000000000     
   GDM::search:  On step            1 .  The current bracket is:
       left   : x =  0.0000E+00, e =      -243.3521330935, g = -0.9742E-01
       current: x =  0.8226E+00, e =      -243.3364348984, g =  0.1492E+00
       right  : x =  0.1000E+04, e =      1000.0000000000, g =  0.1000E+04
       next   : x =  0.3439E+00
   GDM::      : max rotation in step is        0.301613127727613     
   ------- Leaving GDM -- hopefully with a step in the right direction! --------
 
   20    -243.3364348984      2.12E-02  Gap = 70.46 eV  Line search: overstep
 
   ------------------- Entering Geometric Direct Minimization ------------------
   GDM::trust : actual energy change is       -1.902349560373295E-002
   GDM::trust : predicted energy change was   -0.245024483614685     
   GDM::trust : updated trust radius is        0.108900000000000     
   GDM:         diagonal hessian shift is      0.000000000000000E+000
   GDM::PreWSS: input subspace size is                 16
   GDM::PreWSS: working subspace size set to           16
   GDM::PrEWSS: # of linearly dependent vectors =            0
   GDM::PrEWSS: Max dev from orthonormality =   2.265253436217751E-011
   GDM::BFGS:   lowest Hinv e-value    0.213665099755216     
   GDM::BFGS:   highest Hinv e-value    246.955346775821     
   GDM::      : max scaling in EWCs is          2.82842712474619     
   GDM::      : max rotation in step is        0.136779686042929     
   GDM::        grad.step =  -2.643283626530829E-002
   ------- Leaving GDM -- hopefully with a step in the right direction! --------
 
   21    -243.3711565891      1.08E-01  Gap = 70.46 eV  Descent step
 
   ------------------- Entering Geometric Direct Minimization ------------------
   GDM::trust : actual energy change is       -1.191725595847970E-002
   GDM::trust : predicted energy change was   -2.876095473899559E-002
   GDM::trust : updated trust radius is        0.330000000000000     
   GDM:         diagonal hessian shift is      0.000000000000000E+000
   GDM::PreWSS: input subspace size is                 17
   GDM::PreWSS: working subspace size set to           17
   GDM::PrEWSS: # of linearly dependent vectors =            0
   GDM::PrEWSS: Max dev from orthonormality =   4.200104500307056E-011
   GDM::BFGS:   lowest Hinv e-value    0.216144025905676     
   GDM::BFGS:   highest Hinv e-value    271.517701341917     
   GDM::trust : dogleg step length is          0.330000000000000     
   GDM::      : max scaling in EWCs is          2.82842712474619     
   GDM::      : max rotation in step is       -0.706224975470313     
   GDM::        grad.step =  -6.674632775593541E-002
   ------- Leaving GDM -- hopefully with a step in the right direction! --------
 
   22    -243.3830738450      1.38E-01  Gap = 70.46 eV  Dog-leg BFGS step
 
   ------------------- Entering Geometric Direct Minimization ------------------
   GDM::trust : actual energy change is        2.576826446829728E-002
   GDM::trust : predicted energy change was   -0.134852695426924     
   GDM::trust : updated trust radius is        0.108900000000000     
   GDM::search:  On step            1 .  The current bracket is:
       left   : x =  0.0000E+00, e =      -243.3830738450, g = -0.8817E-01
       current: x =  0.7570E+00, e =      -243.3573055806, g =  0.1461E+00
       right  : x =  0.1000E+04, e =      1000.0000000000, g =  0.1000E+04
       next   : x =  0.2731E+00
   GDM::      : max rotation in step is       -0.254759398214274     
   ------- Leaving GDM -- hopefully with a step in the right direction! --------
 
   23    -243.3573055806      2.44E-02  Gap = 70.46 eV  Line search: overstep
 
   ------------------- Entering Geometric Direct Minimization ------------------
   GDM::trust : actual energy change is       -1.198355089698566E-002
   GDM::trust : predicted energy change was   -0.134852695426924     
   GDM::trust : updated trust radius is        0.108900000000000     
   GDM:         diagonal hessian shift is      0.000000000000000E+000
   GDM::PreWSS: input subspace size is                 18
   GDM::PreWSS: working subspace size set to           18
   GDM::PrEWSS: # of linearly dependent vectors =            0
   GDM::PrEWSS: Max dev from orthonormality =   2.341087740331815E-011
   GDM::BFGS:   lowest Hinv e-value    0.268461390321127     
   GDM::BFGS:   highest Hinv e-value    170.621054930424     
   GDM::      : max scaling in EWCs is          2.82842712474619     
   GDM::      : max rotation in step is       -8.751474542242080E-002
   GDM::        grad.step =  -1.733559455264418E-002
   ------- Leaving GDM -- hopefully with a step in the right direction! --------
 
   24    -243.3950573959      5.54E-02  Gap = 70.46 eV  Descent step
 
   ------------------- Entering Geometric Direct Minimization ------------------
   GDM::trust : actual energy change is        1.290341268173734E-003
   GDM::trust : predicted energy change was   -2.621010020673106E-002
   GDM::trust : updated trust radius is        0.108900000000000     
   GDM::search:  On step            1 .  The current bracket is:
       left   : x =  0.0000E+00, e =      -243.3950573959, g = -0.1032E+00
       current: x =  0.1679E+00, e =      -243.3937670547, g =  0.1164E+00
       right  : x =  0.1000E+04, e =      1000.0000000000, g =  0.1000E+04
       next   : x =  0.7816E-01
   GDM::      : max rotation in step is       -4.072601126235222E-002
   ------- Leaving GDM -- hopefully with a step in the right direction! --------
 
   25    -243.3937670547      1.03E-02  Gap = 70.46 eV  Line search: overstep
 
   ------------------- Entering Geometric Direct Minimization ------------------
   GDM::trust : actual energy change is       -3.993465855018030E-003
   GDM::trust : predicted energy change was   -2.621010020673106E-002
   GDM::trust : updated trust radius is        0.108900000000000     
   GDM:         diagonal hessian shift is      0.000000000000000E+000
   GDM::PreWSS: input subspace size is                 19
   GDM::PreWSS: working subspace size set to           18
   GDM::PrEWSS: # of linearly dependent vectors =            0
   GDM::PrEWSS: Max dev from orthonormality =   4.902573139120570E-011
   GDM::BFGS:   lowest Hinv e-value    0.209724460310474     
   GDM::BFGS:   highest Hinv e-value    145.414003790731     
   GDM::trust : dogleg step length is          0.108900000000000     
   GDM::      : max scaling in EWCs is          2.82842712474619     
   GDM::      : max rotation in step is       -0.168697447325016     
   GDM::        grad.step =  -1.038974357707597E-002
   ------- Leaving GDM -- hopefully with a step in the right direction! --------
 
   26    -243.3990508618      5.63E-02  Gap = 70.46 eV  Dog-leg BFGS step
 
   ------------------- Entering Geometric Direct Minimization ------------------
   GDM::trust : actual energy change is       -2.452004018067555E-003
   GDM::trust : predicted energy change was   -1.983717711695410E-002
   GDM::trust : updated trust radius is        0.108900000000000     
   GDM:         diagonal hessian shift is      0.000000000000000E+000
   GDM::PreWSS: input subspace size is                 19
   GDM::PreWSS: working subspace size set to           18
   GDM::PrEWSS: # of linearly dependent vectors =            0
   GDM::PrEWSS: Max dev from orthonormality =   2.893028351602656E-011
   GDM::BFGS:   lowest Hinv e-value    0.203264953825688     
   GDM::BFGS:   highest Hinv e-value    101.695949493826     
   GDM::      : max scaling in EWCs is          2.82842712474619     
   GDM::      : max rotation in step is        7.183657095359194E-002
   GDM::        grad.step =  -2.337469018559648E-002
   ------- Leaving GDM -- hopefully with a step in the right direction! --------
 
   27    -243.4015028658      5.01E-02  Gap = 70.46 eV  Descent step
 
   ------------------- Entering Geometric Direct Minimization ------------------
   GDM::trust : actual energy change is       -2.227060834570693E-003
   GDM::trust : predicted energy change was   -3.931075934660686E-002
   GDM::trust : updated trust radius is        0.330000000000000     
   GDM:         diagonal hessian shift is      0.000000000000000E+000
   GDM::PreWSS: input subspace size is                 19
   GDM::PreWSS: working subspace size set to           18
   GDM::PrEWSS: # of linearly dependent vectors =            0
   GDM::PrEWSS: Max dev from orthonormality =   3.953338004181184E-011
   GDM::BFGS:   lowest Hinv e-value    0.188788130374058     
   GDM::BFGS:   highest Hinv e-value    100.813261257151     
   GDM::trust : dogleg step length is          0.330000000000000     
   GDM::      : max scaling in EWCs is          2.82842712474619     
   GDM::      : max rotation in step is        0.295895713553243     
   GDM::        grad.step =  -7.326275204189178E-002
   ------- Leaving GDM -- hopefully with a step in the right direction! --------
 
   28    -243.4037299267      7.27E-02  Gap = 70.46 eV  Dog-leg BFGS step
 
   ------------------- Entering Geometric Direct Minimization ------------------
   GDM::trust : actual energy change is        6.142936198625648E-002
   GDM::trust : predicted energy change was   -0.222128208821012     
   GDM::trust : updated trust radius is        0.108900000000000     
   GDM::search:  On step            1 .  The current bracket is:
       left   : x =  0.0000E+00, e =      -243.4037299267, g = -0.1140E+00
       current: x =  0.6425E+00, e =      -243.3423005647, g =  0.3207E+00
       right  : x =  0.1000E+04, e =      1000.0000000000, g =  0.1000E+04
       next   : x =  0.1747E+00
   GDM::      : max rotation in step is        8.047291576320333E-002
   ------- Leaving GDM -- hopefully with a step in the right direction! --------
 
   29    -243.3423005647      4.15E-02  Gap = 70.46 eV  Line search: overstep
 
   ------------------- Entering Geometric Direct Minimization ------------------
   GDM::trust : actual energy change is       -1.064245487103221E-002
   GDM::trust : predicted energy change was   -0.222128208821012     
   GDM::trust : updated trust radius is        0.108900000000000     
   GDM:         diagonal hessian shift is      0.000000000000000E+000
   GDM::PreWSS: input subspace size is                 19
   GDM::PreWSS: working subspace size set to           18
   GDM::PrEWSS: # of linearly dependent vectors =            0
   GDM::PrEWSS: Max dev from orthonormality =   1.446165409646483E-011
   GDM::BFGS:   lowest Hinv e-value    0.214661980566600     
   GDM::BFGS:   highest Hinv e-value    84.7041910590849     
   GDM::      : max scaling in EWCs is          2.82842712474619     
   GDM::      : max rotation in step is        0.171020141330598     
   GDM::        grad.step =  -1.679073697644663E-002
   ------- Leaving GDM -- hopefully with a step in the right direction! --------
 
   30    -243.4143723815      8.56E-02  Gap = 70.46 eV  Descent step
 
   ------------------- Entering Geometric Direct Minimization ------------------
   GDM::trust : actual energy change is       -1.300961222872843E-002
   GDM::trust : predicted energy change was   -2.032392986571699E-002
   GDM::trust : updated trust radius is        0.330000000000000     
   GDM:         diagonal hessian shift is      0.000000000000000E+000
   GDM::PreWSS: input subspace size is                 19
   GDM::PreWSS: working subspace size set to           18
   GDM::PrEWSS: # of linearly dependent vectors =            0
   GDM::PrEWSS: Max dev from orthonormality =   7.407741087206432E-012
   GDM::BFGS:   lowest Hinv e-value    0.152991928715901     
   GDM::BFGS:   highest Hinv e-value    114.242229588624     
   GDM::trust : dogleg step length is          0.330000000000000     
   GDM::      : max scaling in EWCs is          2.82842712474619     
   GDM::      : max rotation in step is        0.596650061729735     
   GDM::        grad.step =  -6.083372017078763E-002
   ------- Leaving GDM -- hopefully with a step in the right direction! --------
 
   31    -243.4273819938      1.09E-01  Gap = 70.46 eV  Dog-leg BFGS step
 
   ------------------- Entering Geometric Direct Minimization ------------------
   GDM::trust : actual energy change is       -9.884907383025165E-003
   GDM::trust : predicted energy change was   -0.145929360023310     
   GDM::trust : updated trust radius is        0.330000000000000     
   GDM:         diagonal hessian shift is      0.000000000000000E+000
   GDM::PreWSS: input subspace size is                 19
   GDM::PreWSS: working subspace size set to           18
   GDM::PrEWSS: # of linearly dependent vectors =            0
   GDM::PrEWSS: Max dev from orthonormality =   6.788222761677787E-012
   GDM::BFGS:   lowest Hinv e-value    0.303754212402960     
   GDM::BFGS:   highest Hinv e-value    94.2238783241350     
   GDM::      : max scaling in EWCs is          2.82842712474619     
   GDM::      : max rotation in step is       -0.161652552291108     
   GDM::        grad.step =  -0.147470726153790     
   ------- Leaving GDM -- hopefully with a step in the right direction! --------
 
   32    -243.4372669011      9.36E-02  Gap = 70.46 eV  Descent step
 
   ------------------- Entering Geometric Direct Minimization ------------------
   GDM::trust : actual energy change is        5.390039848086303E-002
   GDM::trust : predicted energy change was   -0.278047377668560     
   GDM::trust : updated trust radius is        0.108900000000000     
   GDM::search:  On step            1 .  The current bracket is:
       left   : x =  0.0000E+00, e =      -243.4372669011, g = -0.3574E+00
       current: x =  0.4126E+00, e =      -243.3833665027, g =  0.5773E+00
       right  : x =  0.1000E+04, e =      1000.0000000000, g =  0.1000E+04
       next   : x =  0.1511E+00
   GDM::      : max rotation in step is       -5.919175183193263E-002
   ------- Leaving GDM -- hopefully with a step in the right direction! --------
 
   33    -243.3833665027      5.05E-02  Gap = 70.46 eV  Line search: overstep
 
   ------------------- Entering Geometric Direct Minimization ------------------
   GDM::trust : actual energy change is       -2.574408434048792E-002
   GDM::trust : predicted energy change was   -0.278047377668560     
   GDM::trust : updated trust radius is        0.108900000000000     
   GDM:         diagonal hessian shift is      0.000000000000000E+000
   GDM::PreWSS: input subspace size is                 19
   GDM::PreWSS: working subspace size set to           18
   GDM::PrEWSS: # of linearly dependent vectors =            0
   GDM::PrEWSS: Max dev from orthonormality =   7.299695570228693E-012
   GDM::BFGS:   lowest Hinv e-value    0.211705731246646     
   GDM::BFGS:   highest Hinv e-value    95.0450329056596     
   GDM::      : max scaling in EWCs is          2.82842712474619     
   GDM::      : max rotation in step is       -0.161557481368746     
   GDM::        grad.step =  -1.429107995667650E-002
   ------- Leaving GDM -- hopefully with a step in the right direction! --------
 
   34    -243.4630109855      6.88E-02  Gap = 70.46 eV  Descent step
 
   ------------------- Entering Geometric Direct Minimization ------------------
   GDM::trust : actual energy change is       -7.195557607531100E-003
   GDM::trust : predicted energy change was   -2.098145034716099E-002
   GDM::trust : updated trust radius is        0.330000000000000     
   GDM:         diagonal hessian shift is      0.000000000000000E+000
   GDM::PreWSS: input subspace size is                 19
   GDM::PreWSS: working subspace size set to           18
   GDM::PrEWSS: # of linearly dependent vectors =            0
   GDM::PrEWSS: Max dev from orthonormality =   2.620442057787997E-012
   GDM::BFGS:   lowest Hinv e-value    0.200533234876110     
   GDM::BFGS:   highest Hinv e-value    95.1735591241695     
   GDM::trust : dogleg step length is          0.330000000000000     
   GDM::      : max scaling in EWCs is          2.82842712474619     
   GDM::      : max rotation in step is        0.436479587510661     
   GDM::        grad.step =  -3.456776042612128E-002
   ------- Leaving GDM -- hopefully with a step in the right direction! --------
 
   35    -243.4702065431      5.19E-02  Gap = 70.46 eV  Dog-leg BFGS step
 
   ------------------- Entering Geometric Direct Minimization ------------------
   GDM::trust : actual energy change is        1.560556487561371E-003
   GDM::trust : predicted energy change was   -7.227751602106680E-002
   GDM::trust : updated trust radius is        0.108900000000000     
   GDM::search:  On step            1 .  The current bracket is:
       left   : x =  0.0000E+00, e =      -243.4702065431, g = -0.4606E-01
       current: x =  0.7505E+00, e =      -243.4686459866, g =  0.5462E-01
       right  : x =  0.1000E+04, e =      1000.0000000000, g =  0.1000E+04
       next   : x =  0.3590E+00
   GDM::      : max rotation in step is        0.208812963083904     
   ------- Leaving GDM -- hopefully with a step in the right direction! --------
 
   36    -243.4686459866      1.16E-02  Gap = 70.46 eV  Line search: overstep
 
   ------------------- Entering Geometric Direct Minimization ------------------
   GDM::trust : actual energy change is       -8.552984461630331E-003
   GDM::trust : predicted energy change was   -7.227751602106680E-002
   GDM::trust : updated trust radius is        0.108900000000000     
   GDM:         diagonal hessian shift is      0.000000000000000E+000
   GDM::PreWSS: input subspace size is                 19
   GDM::PreWSS: working subspace size set to           18
   GDM::PrEWSS: # of linearly dependent vectors =            0
   GDM::PrEWSS: Max dev from orthonormality =   2.750463051759411E-012
   GDM::BFGS:   lowest Hinv e-value    0.260468993958918     
   GDM::BFGS:   highest Hinv e-value    69.3916049399444     
   GDM::      : max scaling in EWCs is          2.82842712474619     
   GDM::      : max rotation in step is        0.181157067585973     
   GDM::        grad.step =  -1.478935149074854E-002
   ------- Leaving GDM -- hopefully with a step in the right direction! --------
 
   37    -243.4787595275      7.99E-02  Gap = 70.46 eV  Descent step
 
   ------------------- Entering Geometric Direct Minimization ------------------
   GDM::trust : actual energy change is       -1.910526570327420E-003
   GDM::trust : predicted energy change was   -2.230804454241282E-002
   GDM::trust : updated trust radius is        0.330000000000000     
   GDM:         diagonal hessian shift is      0.000000000000000E+000
   GDM::PreWSS: input subspace size is                 19
   GDM::PreWSS: working subspace size set to           18
   GDM::PrEWSS: # of linearly dependent vectors =            0
   GDM::PrEWSS: Max dev from orthonormality =   4.651751206452559E-012
   GDM::BFGS:   lowest Hinv e-value    0.221047154489110     
   GDM::BFGS:   highest Hinv e-value    67.0611734827317     
   GDM::trust : dogleg step length is          0.330000000000000     
   GDM::      : max scaling in EWCs is          2.82842712474619     
   GDM::      : max rotation in step is        0.367313782726600     
   GDM::        grad.step =  -5.996779405793306E-002
   ------- Leaving GDM -- hopefully with a step in the right direction! --------
 
   38    -243.4806700541      6.11E-02  Gap = 70.46 eV  Dog-leg BFGS step
 
   ------------------- Entering Geometric Direct Minimization ------------------
   GDM::trust : actual energy change is        3.051711543312763E-002
   GDM::trust : predicted energy change was   -0.144736361795093     
   GDM::trust : updated trust radius is        0.108900000000000     
   GDM::search:  On step            1 .  The current bracket is:
       left   : x =  0.0000E+00, e =      -243.4806700541, g = -0.8827E-01
       current: x =  0.6794E+00, e =      -243.4501529387, g =  0.1823E+00
       right  : x =  0.1000E+04, e =      1000.0000000000, g =  0.1000E+04
       next   : x =  0.2251E+00
   GDM::      : max rotation in step is        0.121716413273117     
   ------- Leaving GDM -- hopefully with a step in the right direction! --------
 
   39    -243.4501529387      2.23E-02  Gap = 70.46 eV  Line search: overstep
 
   ------------------- Entering Geometric Direct Minimization ------------------
   GDM::trust : actual energy change is       -1.022652999043316E-002
   GDM::trust : predicted energy change was   -0.144736361795093     
   GDM::trust : updated trust radius is        0.108900000000000     
   GDM:         diagonal hessian shift is      0.000000000000000E+000
   GDM::PreWSS: input subspace size is                 19
   GDM::PreWSS: working subspace size set to           18
   GDM::PrEWSS: # of linearly dependent vectors =            0
   GDM::PrEWSS: Max dev from orthonormality =   3.293296191309025E-012
   GDM::BFGS:   lowest Hinv e-value    0.216953250727843     
   GDM::BFGS:   highest Hinv e-value    63.2359397370088     
   GDM::      : max scaling in EWCs is          2.82842712474619     
   GDM::      : max rotation in step is        0.191258908287534     
   GDM::        grad.step =  -1.406744953778404E-002
   ------- Leaving GDM -- hopefully with a step in the right direction! --------
 
   40    -243.4908965841      8.02E-02  Gap = 70.46 eV  Descent step
 
   ------------------- Entering Geometric Direct Minimization ------------------
   GDM::trust : actual energy change is       -9.568827568386951E-004
   GDM::trust : predicted energy change was   -2.032313280990679E-002
   GDM::trust : updated trust radius is        0.330000000000000     
   GDM:         diagonal hessian shift is      0.000000000000000E+000
   GDM::PreWSS: input subspace size is                 19
   GDM::PreWSS: working subspace size set to           18
   GDM::PrEWSS: # of linearly dependent vectors =            0
   GDM::PrEWSS: Max dev from orthonormality =   4.017538038358914E-012
   GDM::BFGS:   lowest Hinv e-value    0.201689801519951     
   GDM::BFGS:   highest Hinv e-value    66.2811744960791     
   GDM::trust : dogleg step length is          0.330000000000000     
   GDM::      : max scaling in EWCs is          2.82842712474619     
   GDM::      : max rotation in step is        0.596347372751374     
   GDM::        grad.step =  -5.232527166066780E-002
   ------- Leaving GDM -- hopefully with a step in the right direction! --------
 
   41    -243.4918534669      8.58E-02  Gap = 70.46 eV  Dog-leg BFGS step
 
   ------------------- Entering Geometric Direct Minimization ------------------
   GDM::trust : actual energy change is        2.840908807735332E-002
   GDM::trust : predicted energy change was   -0.110030813394328     
   GDM::trust : updated trust radius is        0.108900000000000     
   GDM::search:  On step            1 .  The current bracket is:
       left   : x =  0.0000E+00, e =      -243.4918534669, g = -0.6627E-01
       current: x =  0.7896E+00, e =      -243.4634443788, g =  0.1426E+00
       right  : x =  0.1000E+04, e =      1000.0000000000, g =  0.1000E+04
       next   : x =  0.2559E+00
   GDM::      : max rotation in step is        0.193251289690020     
   ------- Leaving GDM -- hopefully with a step in the right direction! --------
 
   42    -243.4634443788      3.27E-02  Gap = 70.46 eV  Line search: overstep
 
   ------------------- Entering Geometric Direct Minimization ------------------
   GDM::trust : actual energy change is       -9.275997896253330E-003
   GDM::trust : predicted energy change was   -0.110030813394328     
   GDM::trust : updated trust radius is        0.108900000000000     
   GDM:         diagonal hessian shift is      0.000000000000000E+000
   GDM::PreWSS: input subspace size is                 19
   GDM::PreWSS: working subspace size set to           18
   GDM::PrEWSS: # of linearly dependent vectors =            0
   GDM::PrEWSS: Max dev from orthonormality =   1.931101112351286E-012
   GDM::BFGS:   lowest Hinv e-value    0.215436516695967     
   GDM::BFGS:   highest Hinv e-value    7.27506816686101     
   GDM::trust : dogleg step length is          0.108900000000000     
   GDM::      : max scaling in EWCs is          2.69512319650798     
   GDM::      : max rotation in step is        0.104771902894738     
   GDM::        grad.step =  -1.115032324958386E-002
   ------- Leaving GDM -- hopefully with a step in the right direction! --------
 
   43    -243.5011294648      2.70E-02  Gap = 70.46 eV  Dog-leg BFGS step
 
   ------------------- Entering Geometric Direct Minimization ------------------
   GDM::trust : actual energy change is        3.734073129464832E-003
   GDM::trust : predicted energy change was   -2.044371278808121E-002
   GDM::trust : updated trust radius is        3.593700000000000E-002
   GDM::search:  On step            1 .  The current bracket is:
       left   : x =  0.0000E+00, e =      -243.5011294648, g = -0.6207E-01
       current: x =  0.1796E+00, e =      -243.4973953916, g =  0.1028E+00
       right  : x =  0.1000E+04, e =      1000.0000000000, g =  0.1000E+04
       next   : x =  0.6728E-01
   GDM::      : max rotation in step is        3.924380119286373E-002
   ------- Leaving GDM -- hopefully with a step in the right direction! --------
 
   44    -243.4973953916      1.16E-02  Gap = 70.46 eV  Line search: overstep
 
   ------------------- Entering Geometric Direct Minimization ------------------
   GDM::trust : actual energy change is       -2.076635528197812E-003
   GDM::trust : predicted energy change was   -2.044371278808121E-002
   GDM::trust : updated trust radius is        3.593700000000000E-002
   GDM:         diagonal hessian shift is      0.000000000000000E+000
   GDM::PreWSS: input subspace size is                 19
   GDM::PreWSS: working subspace size set to           18
   GDM::PrEWSS: # of linearly dependent vectors =            0
   GDM::PrEWSS: Max dev from orthonormality =   2.389324849083607E-012
   GDM::BFGS:   lowest Hinv e-value    0.201981957253176     
   GDM::BFGS:   highest Hinv e-value    7.28363220969420     
   GDM::      : max scaling in EWCs is          2.67406230645150     
   GDM::      : max rotation in step is        6.073920852424004E-002
   GDM::        grad.step =  -2.209245478753583E-003
   ------- Leaving GDM -- hopefully with a step in the right direction! --------
 
   45    -243.5032061003      3.89E-02  Gap = 70.46 eV  Descent step
 
   ------------------- Entering Geometric Direct Minimization ------------------
   GDM::trust : actual energy change is       -7.587283635928088E-004
   GDM::trust : predicted energy change was   -2.877753021347544E-003
   GDM::trust : updated trust radius is        0.330000000000000     
   GDM:         diagonal hessian shift is      0.000000000000000E+000
   GDM::PreWSS: input subspace size is                 19
   GDM::PreWSS: working subspace size set to           18
   GDM::PrEWSS: # of linearly dependent vectors =            0
   GDM::PrEWSS: Max dev from orthonormality =   4.563974198568133E-012
   GDM::BFGS:   lowest Hinv e-value    0.219140377973120     
   GDM::BFGS:   highest Hinv e-value    7.02526072757109     
   GDM::      : max scaling in EWCs is          2.65824693323690     
   GDM::      : max rotation in step is        0.208981931597909     
   GDM::        grad.step =  -4.448352713300072E-003
   ------- Leaving GDM -- hopefully with a step in the right direction! --------
 
   46    -243.5039648287      1.87E-02  Gap = 70.46 eV  Normal BFGS step
 
   ------------------- Entering Geometric Direct Minimization ------------------
   GDM::trust : actual energy change is       -6.609286717775831E-004
   GDM::trust : predicted energy change was   -6.672529069950109E-003
   GDM::trust : updated trust radius is        0.330000000000000     
   GDM:         diagonal hessian shift is      0.000000000000000E+000
   GDM::PreWSS: input subspace size is                 19
   GDM::PreWSS: working subspace size set to           18
   GDM::PrEWSS: # of linearly dependent vectors =            0
   GDM::PrEWSS: Max dev from orthonormality =   4.225083824471731E-012
   GDM::BFGS:   lowest Hinv e-value    0.204815888605385     
   GDM::BFGS:   highest Hinv e-value    7.17090813668794     
   GDM::      : max scaling in EWCs is          2.60383901508718     
   GDM::      : max rotation in step is        5.770099481500574E-002
   GDM::        grad.step =  -4.094616049425674E-003
   ------- Leaving GDM -- hopefully with a step in the right direction! --------
 
   47    -243.5046257573      3.13E-02  Gap = 70.46 eV  Normal BFGS step
 
   ------------------- Entering Geometric Direct Minimization ------------------
   GDM::trust : actual energy change is       -4.068724331602880E-004
   GDM::trust : predicted energy change was   -6.141924074138509E-003
   GDM::trust : updated trust radius is        0.330000000000000     
   GDM:         diagonal hessian shift is      0.000000000000000E+000
   GDM::PreWSS: input subspace size is                 19
   GDM::PreWSS: working subspace size set to           18
   GDM::PrEWSS: # of linearly dependent vectors =            0
   GDM::PrEWSS: Max dev from orthonormality =   4.236298811743922E-012
   GDM::BFGS:   lowest Hinv e-value    0.218759597544848     
   GDM::BFGS:   highest Hinv e-value    6.70712878844514     
   GDM::      : max scaling in EWCs is          2.62529723646461     
   GDM::      : max rotation in step is        7.803305576770420E-002
   GDM::        grad.step =  -2.798897821069009E-003
   ------- Leaving GDM -- hopefully with a step in the right direction! --------
 
   48    -243.5050326298      1.71E-02  Gap = 70.46 eV  Normal BFGS step
 
   ------------------- Entering Geometric Direct Minimization ------------------
   GDM::trust : actual energy change is       -8.342479590055518E-004
   GDM::trust : predicted energy change was   -4.198346731603513E-003
   GDM::trust : updated trust radius is        0.330000000000000     
   GDM:         diagonal hessian shift is      0.000000000000000E+000
   GDM::PreWSS: input subspace size is                 19
   GDM::PreWSS: working subspace size set to           18
   GDM::PrEWSS: # of linearly dependent vectors =            0
   GDM::PrEWSS: Max dev from orthonormality =   4.140614934255993E-012
   GDM::BFGS:   lowest Hinv e-value    0.219055099642716     
   GDM::BFGS:   highest Hinv e-value    6.16905258176706     
   GDM::      : max scaling in EWCs is          2.61645079713204     
   GDM::      : max rotation in step is        6.543563128024030E-002
   GDM::        grad.step =  -1.147617058962534E-003
   ------- Leaving GDM -- hopefully with a step in the right direction! --------
 
   49    -243.5058668777      9.76E-03  Gap = 70.46 eV  Normal BFGS step
 
   ------------------- Entering Geometric Direct Minimization ------------------
   GDM::trust : actual energy change is        2.145856043966887E-005
   GDM::trust : predicted energy change was   -1.721425588443800E-003
   GDM::trust : updated trust radius is        0.108900000000000     
   GDM::search:  On step            1 .  The current bracket is:
       left   : x =  0.0000E+00, e =      -243.5058668777, g = -0.1097E-01
       current: x =  0.1046E+00, e =      -243.5058454192, g =  0.1148E-01
       right  : x =  0.1000E+04, e =      1000.0000000000, g =  0.1000E+04
       next   : x =  0.5134E-01
   GDM::      : max rotation in step is        3.211727516804490E-002
   ------- Leaving GDM -- hopefully with a step in the right direction! --------
 
   50    -243.5058454192      2.56E-03  Gap = 70.46 eV  Line search: overstep
 
   ------------------- Entering Geometric Direct Minimization ------------------
   GDM::trust : actual energy change is       -2.829124011327622E-004
   GDM::trust : predicted energy change was   -1.721425588443800E-003
   GDM::trust : updated trust radius is        0.108900000000000     
   GDM:         diagonal hessian shift is      0.000000000000000E+000
   GDM::PreWSS: input subspace size is                 19
   GDM::PreWSS: working subspace size set to           18
   GDM::PrEWSS: # of linearly dependent vectors =            0
   GDM::PrEWSS: Max dev from orthonormality =   1.022442547293778E-011
   GDM::BFGS:   lowest Hinv e-value    0.217841219984986     
   GDM::BFGS:   highest Hinv e-value    4.70528480558055     
   GDM::      : max scaling in EWCs is          2.60651045989224     
   GDM::      : max rotation in step is        3.541844345373857E-002
   GDM::        grad.step =  -3.220284549865636E-004
   ------- Leaving GDM -- hopefully with a step in the right direction! --------
 
   51    -243.5061497901      4.40E-03  Gap = 70.46 eV  Normal BFGS step
 
   ------------------- Entering Geometric Direct Minimization ------------------
   GDM::trust : actual energy change is        9.664979216950087E-006
   GDM::trust : predicted energy change was   -4.830426824798456E-004
   GDM::trust : updated trust radius is        0.108900000000000     
   GDM::search:  On step            1 .  The current bracket is:
       left   : x =  0.0000E+00, e =      -243.5061497901, g = -0.5115E-02
       current: x =  0.6296E-01, e =      -243.5061401251, g =  0.5394E-02
       right  : x =  0.1000E+04, e =      1000.0000000000, g =  0.1000E+04
       next   : x =  0.3056E-01
   GDM::      : max rotation in step is        1.719320530239724E-002
   ------- Leaving GDM -- hopefully with a step in the right direction! --------
 
   52    -243.5061401251      5.13E-04  Gap = 70.46 eV  Line search: overstep
 
   ------------------- Entering Geometric Direct Minimization ------------------
   GDM::trust : actual energy change is       -7.795106697017218E-005
   GDM::trust : predicted energy change was   -4.830426824798456E-004
   GDM::trust : updated trust radius is        0.108900000000000     
   GDM:         diagonal hessian shift is      0.000000000000000E+000
   GDM::PreWSS: input subspace size is                 19
   GDM::PreWSS: working subspace size set to           18
   GDM::PrEWSS: # of linearly dependent vectors =            0
   GDM::PrEWSS: Max dev from orthonormality =   3.258626354862848E-011
   GDM::BFGS:   lowest Hinv e-value    0.212149602491852     
   GDM::BFGS:   highest Hinv e-value    3.36987790133937     
   GDM::      : max scaling in EWCs is          2.60861085406504     
   GDM::      : max rotation in step is        2.038947334371681E-002
   GDM::        grad.step =  -7.642782413631798E-005
   ------- Leaving GDM -- hopefully with a step in the right direction! --------
 
   53    -243.5062277412      2.86E-03  Gap = 70.46 eV  Normal BFGS step
 
   ------------------- Entering Geometric Direct Minimization ------------------
   GDM::trust : actual energy change is       -2.627173512337322E-005
   GDM::trust : predicted energy change was   -1.146417362044770E-004
   GDM::trust : updated trust radius is        0.330000000000000     
   GDM:         diagonal hessian shift is      0.000000000000000E+000
   GDM::PreWSS: input subspace size is                 19
   GDM::PreWSS: working subspace size set to           18
   GDM::PrEWSS: # of linearly dependent vectors =            0
   GDM::PrEWSS: Max dev from orthonormality =   1.950654221483106E-011
   GDM::BFGS:   lowest Hinv e-value    0.210996819709812     
   GDM::BFGS:   highest Hinv e-value    2.94823690337977     
   GDM::      : max scaling in EWCs is          2.60710098506290     
   GDM::      : max rotation in step is       -4.858049012903823E-003
   GDM::        grad.step =  -1.974243305750093E-005
   ------- Leaving GDM -- hopefully with a step in the right direction! --------
 
   54    -243.5062540129      1.22E-03  Gap = 70.46 eV  Normal BFGS step
 
   ------------------- Entering Geometric Direct Minimization ------------------
   GDM::trust : actual energy change is       -1.192302022445801E-005
   GDM::trust : predicted energy change was   -2.961364958625137E-005
   GDM::trust : updated trust radius is        0.330000000000000     
   GDM:         diagonal hessian shift is      0.000000000000000E+000
   GDM::PreWSS: input subspace size is                 19
   GDM::PreWSS: working subspace size set to           18
   GDM::PrEWSS: # of linearly dependent vectors =            0
   GDM::PrEWSS: Max dev from orthonormality =   8.589670641434566E-012
   GDM::BFGS:   lowest Hinv e-value    0.214047974807904     
   GDM::BFGS:   highest Hinv e-value    3.00092366285050     
   GDM::      : max scaling in EWCs is          2.60813510304537     
   GDM::      : max rotation in step is        3.756033619742524E-003
   GDM::        grad.step =  -3.357792633871829E-006
   ------- Leaving GDM -- hopefully with a step in the right direction! --------
 
   55    -243.5062659359      5.98E-04  Gap = 70.46 eV  Normal BFGS step
 
   ------------------- Entering Geometric Direct Minimization ------------------
   GDM::trust : actual energy change is       -1.931014878664428E-006
   GDM::trust : predicted energy change was   -5.036688950807745E-006
   GDM::trust : updated trust radius is        0.330000000000000     
   GDM:         diagonal hessian shift is      0.000000000000000E+000
   GDM::PreWSS: input subspace size is                 19
   GDM::PreWSS: working subspace size set to           18
   GDM::PrEWSS: # of linearly dependent vectors =            0
   GDM::PrEWSS: Max dev from orthonormality =   5.002085134986345E-010
   GDM::BFGS:   lowest Hinv e-value    0.212028305458839     
   GDM::BFGS:   highest Hinv e-value    3.51833073260308     
   GDM::      : max scaling in EWCs is          2.60842025795655     
   GDM::      : max rotation in step is        1.408079565132607E-003
   GDM::        grad.step =  -4.735681144652294E-007
   ------- Leaving GDM -- hopefully with a step in the right direction! --------
 
   56    -243.5062678670      1.82E-04  Gap = 70.46 eV  Normal BFGS step
 
   ------------------- Entering Geometric Direct Minimization ------------------
   GDM::trust : actual energy change is       -2.203909730269515E-007
   GDM::trust : predicted energy change was   -7.103521716978438E-007
   GDM::trust : updated trust radius is        0.330000000000000     
   GDM:         diagonal hessian shift is      0.000000000000000E+000
   GDM::PreWSS: input subspace size is                 19
   GDM::PreWSS: working subspace size set to           18
   GDM::PrEWSS: # of linearly dependent vectors =            0
   GDM::PrEWSS: Max dev from orthonormality =   5.554299381538286E-011
   GDM::BFGS:   lowest Hinv e-value    0.212386829129746     
   GDM::BFGS:   highest Hinv e-value    3.87361586359093     
   GDM::      : max scaling in EWCs is          2.60830166327929     
   GDM::      : max rotation in step is       -2.424059108668972E-004
   GDM::        grad.step =  -1.075161909814681E-007
   ------- Leaving GDM -- hopefully with a step in the right direction! --------
 
   57    -243.5062680873      9.01E-05  Gap = 70.46 eV  Normal BFGS step
 
   ------------------- Entering Geometric Direct Minimization ------------------
   GDM::trust : actual energy change is       -5.081483323010616E-008
   GDM::trust : predicted energy change was   -1.612742864722022E-007
   GDM::trust : updated trust radius is        0.330000000000000     
   GDM:         diagonal hessian shift is      0.000000000000000E+000
   GDM::PreWSS: input subspace size is                 19
   GDM::PreWSS: working subspace size set to           18
   GDM::PrEWSS: # of linearly dependent vectors =            0
   GDM::PrEWSS: Max dev from orthonormality =   7.665189420691387E-010
   GDM::BFGS:   lowest Hinv e-value    0.211229341348973     
   GDM::BFGS:   highest Hinv e-value    3.46520298421753     
   GDM::      : max scaling in EWCs is          2.60842951307933     
   GDM::      : max rotation in step is       -2.103062655406608E-004
   GDM::        grad.step =  -1.509818782587219E-008
   ------- Leaving GDM -- hopefully with a step in the right direction! --------
 
   58    -243.5062681382      3.54E-05  Gap = 70.46 eV  Normal BFGS step
 
   ------------------- Entering Geometric Direct Minimization ------------------
   GDM::trust : actual energy change is       -8.983079169411212E-009
   GDM::trust : predicted energy change was   -2.264728173880828E-008
   GDM::trust : updated trust radius is        0.330000000000000     
   GDM:         diagonal hessian shift is      0.000000000000000E+000
   GDM::PreWSS: input subspace size is                 19
   GDM::PreWSS: working subspace size set to           18
   GDM::PrEWSS: # of linearly dependent vectors =            0
   GDM::PrEWSS: Max dev from orthonormality =   1.870205545984049E-009
   GDM::BFGS:   lowest Hinv e-value    0.209051922197329     
   GDM::BFGS:   highest Hinv e-value    3.52869633928230     
   GDM::      : max scaling in EWCs is          2.60839171704469     
   GDM::      : max rotation in step is       -5.986613215849405E-005
   GDM::        grad.step =  -2.529938652023355E-009
   ------- Leaving GDM -- hopefully with a step in the right direction! --------
 
   59    -243.5062681471      1.10E-05  Gap = 70.46 eV  Normal BFGS step
 
   ------------------- Entering Geometric Direct Minimization ------------------
   GDM::trust : actual energy change is       -1.165858520835172E-009
   GDM::trust : predicted energy change was   -3.794907978035033E-009
   GDM::trust : updated trust radius is        0.330000000000000     
   GDM:         diagonal hessian shift is      0.000000000000000E+000
   GDM::PreWSS: input subspace size is                 19
   GDM::PreWSS: working subspace size set to           18
   GDM::PrEWSS: # of linearly dependent vectors =            1
   GDM::PrEWSS: Max dev from orthonormality =   3.194952774565607E-010
   GDM::BFGS:   lowest Hinv e-value    0.204872683292047     
   GDM::BFGS:   highest Hinv e-value    3.43912276519883     
   GDM::      : max scaling in EWCs is          2.60838120814984     
   GDM::      : max rotation in step is       -1.784703453813831E-005
   GDM::        grad.step =  -2.808698910319487E-010
   ------- Leaving GDM -- hopefully with a step in the right direction! --------
 
   60    -243.5062681483      4.05E-06  Gap = 70.46 eV  Normal BFGS step
 
   ------------------- Entering Geometric Direct Minimization ------------------
   GDM::trust : actual energy change is       -1.405453531333478E-010
   GDM::trust : predicted energy change was   -4.213048365479232E-010
   GDM::trust : updated trust radius is        0.330000000000000     
   GDM:         diagonal hessian shift is      0.000000000000000E+000
   GDM::PreWSS: input subspace size is                 19
   GDM::PreWSS: working subspace size set to           18
   GDM::PrEWSS: # of linearly dependent vectors =            1
   GDM::PrEWSS: Max dev from orthonormality =   2.814661004268970E-011
   GDM::BFGS:   lowest Hinv e-value    0.204538223359509     
   GDM::BFGS:   highest Hinv e-value    3.48704292698165     
   GDM::      : max scaling in EWCs is          2.60838185098493     
   GDM::      : max rotation in step is        8.286710269759696E-006
   GDM::        grad.step =  -4.531570146106861E-011
   ------- Leaving GDM -- hopefully with a step in the right direction! --------
 
   61    -243.5062681484      2.10E-06  Gap = 70.46 eV  Normal BFGS step
 
   ------------------- Entering Geometric Direct Minimization ------------------
   GDM::trust : actual energy change is       -2.737010618147906E-011
   GDM::trust : predicted energy change was   -6.797355219160293E-011
   GDM::trust : updated trust radius is        0.330000000000000     
   GDM:         diagonal hessian shift is      0.000000000000000E+000
   GDM::PreWSS: input subspace size is                 19
   GDM::PreWSS: working subspace size set to           18
   GDM::PrEWSS: # of linearly dependent vectors =            0
   GDM::PrEWSS: Max dev from orthonormality =   5.757238574766177E-010
   GDM::BFGS:   lowest Hinv e-value    0.206241774825685     
   GDM::BFGS:   highest Hinv e-value    3.52268038499959     
   GDM::      : max scaling in EWCs is          2.60838297454757     
   GDM::      : max rotation in step is       -4.833971556367853E-006
   GDM::        grad.step =  -1.109122447091886E-011
   ------- Leaving GDM -- hopefully with a step in the right direction! --------
 
   62    -243.5062681485      9.69E-07  Gap = 70.46 eV  Normal BFGS step
 
   ------------------- Entering Geometric Direct Minimization ------------------
   GDM::trust : actual energy change is       -5.201172825763933E-012
   GDM::trust : predicted energy change was   -1.663683670637831E-011
   GDM::trust : updated trust radius is        0.330000000000000     
   GDM:         diagonal hessian shift is      0.000000000000000E+000
   GDM::PreWSS: input subspace size is                 19
   GDM::PreWSS: working subspace size set to           18
   GDM::PrEWSS: # of linearly dependent vectors =            0
   GDM::PrEWSS: Max dev from orthonormality =   6.415717609953298E-011
   GDM::BFGS:   lowest Hinv e-value    0.208941975207970     
   GDM::BFGS:   highest Hinv e-value    3.39974256298849     
   GDM::      : max scaling in EWCs is          2.60838308582614     
   GDM::      : max rotation in step is       -1.667716952825131E-006
   GDM::        grad.step =  -1.094523841193438E-012
   ------- Leaving GDM -- hopefully with a step in the right direction! --------
 
   63    -243.5062681485      2.14E-07  Gap = 70.46 eV  Normal BFGS step
 
   ------------------- Entering Geometric Direct Minimization ------------------
   GDM::trust : actual energy change is       -3.126388037344441E-013
   GDM::trust : predicted energy change was   -1.641785761790157E-012
   GDM::trust : updated trust radius is        0.330000000000000     
   GDM:         diagonal hessian shift is      0.000000000000000E+000
   GDM::PreWSS: input subspace size is                 19
   GDM::PreWSS: working subspace size set to           14
   GDM::PrEWSS: # of linearly dependent vectors =            0
   GDM::PrEWSS: Max dev from orthonormality =   6.618129655411309E-012
   GDM::BFGS:   lowest Hinv e-value    0.276429391017041     
   GDM::BFGS:   highest Hinv e-value    3.57451291578806     
   GDM::      : max scaling in EWCs is          2.60838291481049     
   GDM::      : max rotation in step is       -7.738297083562215E-007
   GDM::        grad.step =  -4.366560809943370E-013
   ------- Leaving GDM -- hopefully with a step in the right direction! --------
 
   64    -243.5062681485      2.20E-07  Gap = 70.46 eV  Normal BFGS step
 
   ------------------- Entering Geometric Direct Minimization ------------------
   GDM::trust : actual energy change is       -1.136868377216160E-013
   GDM::trust : predicted energy change was   -6.549841214915054E-013
   GDM::trust : updated trust radius is        0.330000000000000     
   GDM:         diagonal hessian shift is      0.000000000000000E+000
   GDM::PreWSS: input subspace size is                 15
   GDM::PreWSS: working subspace size set to           15
   GDM::PrEWSS: # of linearly dependent vectors =            1
   GDM::PrEWSS: Max dev from orthonormality =   1.350876355221686E-011
   GDM::BFGS:   lowest Hinv e-value    0.207606886380600     
   GDM::BFGS:   highest Hinv e-value    3.40975871928776     
   GDM::      : max scaling in EWCs is          2.60838341661203     
   GDM::      : max rotation in step is        6.286536816038879E-007
   GDM::        grad.step =  -6.879035279286283E-013
   ------- Leaving GDM -- hopefully with a step in the right direction! --------
 
   65    -243.5062681485      4.03E-07  Gap = 70.46 eV  Normal BFGS step
 
   ------------------- Entering Geometric Direct Minimization ------------------
   GDM::trust : actual energy change is       -4.263256414560601E-013
   GDM::trust : predicted energy change was   -1.031855291892943E-012
   GDM::trust : updated trust radius is        0.330000000000000     
   GDM:         diagonal hessian shift is      0.000000000000000E+000
   GDM::PreWSS: input subspace size is                 16
   GDM::PreWSS: working subspace size set to           14
   GDM::PrEWSS: # of linearly dependent vectors =            0
   GDM::PrEWSS: Max dev from orthonormality =   6.226838489276076E-012
   GDM::BFGS:   lowest Hinv e-value    0.204784320773310     
   GDM::BFGS:   highest Hinv e-value    3.49551161781864     
   GDM::      : max scaling in EWCs is          2.60838307193207     
   GDM::      : max rotation in step is        5.934282769472497E-008
   GDM::        grad.step =  -1.230614202959349E-014
   ------- Leaving GDM -- hopefully with a step in the right direction! --------
 
   66    -243.5062681485      1.49E-08  Gap = 149243.21 eV  Normal BFGS step
 
   ------------------- Entering Geometric Direct Minimization ------------------
   GDM::trust : actual energy change is        0.000000000000000E+000
   GDM::trust : predicted energy change was   -1.845921304439024E-014
   GDM::trust : updated trust radius is        0.330000000000000     
   GDM:         diagonal hessian shift is      0.000000000000000E+000
   GDM::PreWSS: input subspace size is                 15
   GDM::PreWSS: working subspace size set to           15
   GDM::PrEWSS: # of linearly dependent vectors =            1
   GDM::PrEWSS: Max dev from orthonormality =   9.300190825789478E-012
   GDM::BFGS:   lowest Hinv e-value    0.204943311679791     
   GDM::BFGS:   highest Hinv e-value    3.48367239547253     
   GDM::      : max scaling in EWCs is          2.60838303775197     
   GDM::      : max rotation in step is       -3.475642243831438E-008
   GDM::        grad.step =  -5.019175855805666E-015
   ------- Leaving GDM -- hopefully with a step in the right direction! --------
 
   67    -243.5062681485      1.75E-08  Gap = 149243.21 eV  Normal BFGS step
 
   ------------------- Entering Geometric Direct Minimization ------------------
   GDM::trust : actual energy change is        1.136868377216160E-013
   GDM::trust : predicted energy change was   -7.528763783708499E-015
   GDM::trust : updated trust radius is        0.108900000000000     
   GDM::WARNING energy changes are now smaller than effective accuracy.
   GDM::        calculation will continue, but THRESH should be increased
   GDM::        or SCF_CONVERGENCE decreased.
   GDM::        effective_thresh =   1.870205545984049E-009
   GDM:         diagonal hessian shift is      0.000000000000000E+000
   GDM::PreWSS: input subspace size is                 16
   GDM::PreWSS: working subspace size set to           16
   GDM::PrEWSS: # of linearly dependent vectors =            2
   GDM::PrEWSS: Max dev from orthonormality =   1.033019416535330E-011
   GDM::BFGS:   lowest Hinv e-value    0.204265936413076     
   GDM::BFGS:   highest Hinv e-value    3.49003020210247     
[...]
   GDM::        grad.step =  -3.797748555428651E-010
   ------- Leaving GDM -- hopefully with a step in the right direction! --------
 
   13    -243.6507023077      6.02E-06  Gap = -0.06 eV  Normal BFGS step
 
   ------------------- Entering Geometric Direct Minimization ------------------
   GDM::trust : actual energy change is       -1.910791525006061E-010
   GDM::trust : predicted energy change was   -5.696622833142976E-010
   GDM::trust : updated trust radius is        0.330000000000000     
   GDM:         diagonal hessian shift is      0.000000000000000E+000
   GDM::PreWSS: input subspace size is                 12
   GDM::PreWSS: working subspace size set to           12
   GDM::PrEWSS: # of linearly dependent vectors =           10
   GDM::PrEWSS: Max dev from orthonormality =   2.571394486228229E-012
   GDM::BFGS:   lowest Hinv e-value    0.193243278346631     
   GDM::BFGS:   highest Hinv e-value    9.97411197269448     
   GDM::      : max scaling in EWCs is          2.65043370888484     
   GDM::      : max rotation in step is        8.484887432353440E-006
   GDM::        grad.step =  -7.173184900047419E-011
   ------- Leaving GDM -- hopefully with a step in the right direction! --------
 
   14    -243.6507023079      3.36E-06  Gap = -0.06 eV  Normal BFGS step
 
   ------------------- Entering Geometric Direct Minimization ------------------
   GDM::trust : actual energy change is       -3.927880243281834E-011
   GDM::trust : predicted energy change was   -1.075977735007113E-010
   GDM::trust : updated trust radius is        0.330000000000000     
   GDM:         diagonal hessian shift is      0.000000000000000E+000
   GDM::PreWSS: input subspace size is                 13
   GDM::PreWSS: working subspace size set to           13
   GDM::PrEWSS: # of linearly dependent vectors =           11
   GDM::PrEWSS: Max dev from orthonormality =   8.072570389927591E-012
   GDM::BFGS:   lowest Hinv e-value    0.192255334344819     
   GDM::BFGS:   highest Hinv e-value    9.90718745790608     
   GDM::      : max scaling in EWCs is          2.65043011827868     
   GDM::      : max rotation in step is        4.926397761729037E-006
   GDM::        grad.step =  -6.907272564451070E-012
   ------- Leaving GDM -- hopefully with a step in the right direction! --------
 
   15    -243.6507023080      7.26E-07  Gap = -0.06 eV  Normal BFGS step
 
   ------------------- Entering Geometric Direct Minimization ------------------
   GDM::trust : actual energy change is       -2.984279490192421E-012
   GDM::trust : predicted energy change was   -1.036090884667661E-011
   GDM::trust : updated trust radius is        0.330000000000000     
   GDM:         diagonal hessian shift is      0.000000000000000E+000
   GDM::PreWSS: input subspace size is                 14
   GDM::PreWSS: working subspace size set to           14
   GDM::PrEWSS: # of linearly dependent vectors =           12
   GDM::PrEWSS: Max dev from orthonormality =   7.857440392777804E-012
   GDM::BFGS:   lowest Hinv e-value    0.192223922639049     
   GDM::BFGS:   highest Hinv e-value    9.85349102376102     
   GDM::      : max scaling in EWCs is          2.65042992547805     
   GDM::      : max rotation in step is       -1.093614871720962E-006
   GDM::        grad.step =  -9.137691832429241E-013
   ------- Leaving GDM -- hopefully with a step in the right direction! --------
 
   16    -243.6507023080      4.47E-07  Gap = -0.06 eV  Normal BFGS step
 
   ------------------- Entering Geometric Direct Minimization ------------------
   GDM::trust : actual energy change is       -1.051603248924948E-012
   GDM::trust : predicted energy change was   -1.370653774864387E-012
   GDM::trust : updated trust radius is        0.330000000000000     
   GDM:         diagonal hessian shift is      0.000000000000000E+000
   GDM::PreWSS: input subspace size is                 15
   GDM::PreWSS: working subspace size set to           15
   GDM::PrEWSS: # of linearly dependent vectors =           13
   GDM::PrEWSS: Max dev from orthonormality =   7.499546990363815E-012
   GDM::BFGS:   lowest Hinv e-value    0.192808825284966     
   GDM::BFGS:   highest Hinv e-value    9.88617658539497     
   GDM::      : max scaling in EWCs is          2.65042983669871     
   GDM::      : max rotation in step is       -1.042494849779962E-006
   GDM::        grad.step =  -3.970264397741674E-013
   ------- Leaving GDM -- hopefully with a step in the right direction! --------
 
   17    -243.6507023080      1.96E-07  Gap = -0.06 eV  Normal BFGS step
 
   ------------------- Entering Geometric Direct Minimization ------------------
   GDM::trust : actual energy change is       -2.557953848736361E-013
   GDM::trust : predicted energy change was   -5.955396596612513E-013
   GDM::trust : updated trust radius is        0.330000000000000     
   GDM:         diagonal hessian shift is      0.000000000000000E+000
   GDM::PreWSS: input subspace size is                 16
   GDM::PreWSS: working subspace size set to           16
   GDM::PrEWSS: # of linearly dependent vectors =           14
   GDM::PrEWSS: Max dev from orthonormality =   6.256186541042652E-012
   GDM::BFGS:   lowest Hinv e-value    0.192908690954130     
   GDM::BFGS:   highest Hinv e-value    9.92571700365656     
   GDM::      : max scaling in EWCs is          2.65042978221992     
   GDM::      : max rotation in step is       -3.139887186801428E-007
   GDM::        grad.step =  -4.027600223461467E-014
   ------- Leaving GDM -- hopefully with a step in the right direction! --------
 
   18    -243.6507023080      5.57E-08  Gap = -0.06 eV  Normal BFGS step
 
   ------------------- Entering Geometric Direct Minimization ------------------
   GDM::trust : actual energy change is        8.526512829121202E-014
   GDM::trust : predicted energy change was   -6.041400335192203E-014
   GDM::trust : updated trust radius is        0.108900000000000     
   GDM::WARNING energy changes are now smaller than effective accuracy.
   GDM::        calculation will continue, but THRESH should be increased
   GDM::        or SCF_CONVERGENCE decreased.
   GDM::        effective_thresh =   2.100000000000000E-010
   GDM:         diagonal hessian shift is      0.000000000000000E+000
   GDM::PreWSS: input subspace size is                 17
   GDM::PreWSS: working subspace size set to           17
   GDM::PrEWSS: # of linearly dependent vectors =           15
   GDM::PrEWSS: Max dev from orthonormality =   4.386192797856125E-012
   GDM::BFGS:   lowest Hinv e-value    0.192172271892259     
   GDM::BFGS:   highest Hinv e-value    9.90790034532184     
   GDM::      : max scaling in EWCs is          2.65042978592547     
   GDM::      : max rotation in step is       -1.507357565900505E-007
   GDM::        grad.step =  -1.119347622567675E-014
   ------- Leaving GDM -- hopefully with a step in the right direction! --------
 
   19    -243.6507023080      3.30E-08  Gap = -0.06 eV  Normal BFGS step
 
   ------------------- Entering Geometric Direct Minimization ------------------
   GDM::trust : actual energy change is        5.684341886080801E-014
   GDM::trust : predicted energy change was   -1.679021433851513E-014
   GDM::trust : updated trust radius is        0.108900000000000     
   GDM::WARNING energy changes are now smaller than effective accuracy.
   GDM::        calculation will continue, but THRESH should be increased
   GDM::        or SCF_CONVERGENCE decreased.
   GDM::        effective_thresh =   2.100000000000000E-010
   GDM:         diagonal hessian shift is      0.000000000000000E+000
   GDM::PreWSS: input subspace size is                 18
   GDM::PreWSS: working subspace size set to           18
   GDM::PrEWSS: # of linearly dependent vectors =           16
   GDM::PrEWSS: Max dev from orthonormality =   1.515232037063718E-011
   GDM::BFGS:   lowest Hinv e-value    0.192788427457843     
   GDM::BFGS:   highest Hinv e-value    9.89102432306242     
   GDM::      : max scaling in EWCs is          2.65042978777058     
   GDM::      : max rotation in step is        4.071811182840227E-008
   GDM::        grad.step =  -1.710652523524428E-015
   ------- Leaving GDM -- hopefully with a step in the right direction! --------
 
   20    -243.6507023080      1.28E-08  Gap = -0.06 eV  Normal BFGS step
 
   ------------------- Entering Geometric Direct Minimization ------------------
   GDM::trust : actual energy change is       -1.705302565824240E-013
   GDM::trust : predicted energy change was   -2.565978785286641E-015
   GDM::trust : updated trust radius is        0.330000000000000     
   GDM:         diagonal hessian shift is      0.000000000000000E+000
   GDM::PreWSS: input subspace size is                 19
   GDM::PreWSS: working subspace size set to           18
   GDM::PrEWSS: # of linearly dependent vectors =           16
   GDM::PrEWSS: Max dev from orthonormality =   7.217768049905260E-013
   GDM::BFGS:   lowest Hinv e-value    0.193057426412474     
   GDM::BFGS:   highest Hinv e-value    9.96002510059760     
   GDM::      : max scaling in EWCs is          2.65042979149150     
   GDM::      : max rotation in step is        2.065829933848840E-008
   GDM::        grad.step =  -3.277188099052912E-016
   ------- Leaving GDM -- hopefully with a step in the right direction! --------
 
   21    -243.6507023080      5.69E-09 Convergence criterion met
 ---------------------------------------
 One-Electron    Energy =  -649.2255507601
 Total Coulomb   Energy =   291.1618145641
 Alpha Exchange  Energy =    -2.7610762313
 Beta  Exchange  Energy =    -2.6384318022
 DFT   Exchange  Energy =   -21.7392546608
 DFT Correlation Energy =    -1.6981017811
 Nuclear Repu.   Energy =   143.2498983634
 Nuclear Attr.   Energy =  -845.8165354970
 Kinetic         Energy =   196.5909847370
 <S^2> = 2.0162
 SCF time:  CPU 71.30 s  wall 8.23 s
 SCF   energy in the final basis set = -243.6507023080
 Total energy in the final basis set = -243.6507023080
 
 --------------------------------------------------------------
 
                    Orbital Energies (a.u.)
 --------------------------------------------------------------
 
 Alpha MOs
 -- Occupied --
-19.143 -19.143  -2.043  -2.034  -1.283  -1.256  -1.236  -1.235
 -1.233  -1.215  -0.887  -0.880  -0.360  -0.355  -0.354  -0.350
 -0.342  -0.314  -0.185  -0.157  -0.145
 -- Virtual --
 -0.073  -0.072  -0.058  -0.055  -0.053  -0.043  -0.041  -0.020
 -0.009  -0.007   0.028   0.035   0.039   0.045   0.055   0.078
  0.096   0.139   0.159   0.168   0.185   0.190   0.202   0.222
  0.223   0.228   0.231   0.232   0.255   0.265   0.268   0.272
  0.277   0.293   0.297   0.342   0.422   0.570   0.636   1.166
  1.167   1.236   1.250   1.271   1.282   1.623   1.744   1.793
  1.800   1.803   1.823   1.828   1.836   1.867   1.869   1.910
  1.919   8.506  10.221
 
 Beta MOs
 -- Occupied --
-19.143 -19.143  -2.029  -2.021  -1.267  -1.245  -1.224  -1.217
 -1.215  -1.199  -0.886  -0.879  -0.358  -0.353  -0.353  -0.344
 -0.334  -0.315  -0.167
 -- Virtual --
 -0.083  -0.081  -0.059  -0.050  -0.046  -0.038  -0.036  -0.033
 -0.029  -0.014   0.006   0.007   0.031   0.037   0.041   0.051
  0.057   0.084   0.105   0.157   0.162   0.178   0.192   0.193
  0.209   0.232   0.233   0.234   0.235   0.235   0.256   0.268
  0.275   0.279   0.288   0.301   0.304   0.353   0.427   0.574
  0.641   1.165   1.166   1.239   1.249   1.272   1.284   1.625
  1.744   1.792   1.801   1.802   1.824   1.828   1.837   1.868
  1.869   1.911   1.921   8.511  10.222
 --------------------------------------------------------------
 
          Ground-State Mulliken Net Atomic Charges

     Atom                 Charge (a.u.)    Spin (a.u.)
  --------------------------------------------------------
      1 Zr                    0.859467       0.958954
      2 Zr                    0.859331       0.956728
      3 O                    -0.859397       0.042133
      4 O                    -0.859401       0.042185
  --------------------------------------------------------
  Sum of atomic charges =     0.000000
  Sum of spin   charges =     2.000000

 -----------------------------------------------------------------
                    Cartesian Multipole Moments
 -----------------------------------------------------------------
    Charge (ESU x 10^10)
                 0.0000
    Dipole Moment (Debye)
         X      -0.0025      Y      -0.0038      Z      -0.4021
       Tot       0.4021
    Quadrupole Moments (Debye-Ang)
        XX     -54.8675     XY       8.8448     YY     -52.9898
        XZ      -0.0488     YZ      -0.0542     ZZ     -63.3581
    Octopole Moments (Debye-Ang^2)
       XXX       0.0376    XXY       0.0307    XYY       0.0352
       YYY       0.0293    XXZ       8.3060    XYZ       2.0125
       YYZ       8.7371    XZZ       0.0760    YZZ       0.0365
       ZZZ      45.0952
    Hexadecapole Moments (Debye-Ang^3)
      XXXX    -378.0517   XXXY     -83.5563   XXYY    -153.0665
      XYYY     -90.2919   YYYY    -415.2551   XXXZ       0.4443
      XXYZ       0.1376   XYYZ       0.1891   YYYZ       0.5060
      XXZZ    -102.9747   XYZZ     -38.3975   YYZZ    -111.1947
      XZZZ       0.6832   YZZZ       0.7215   ZZZZ    -193.3147
 -----------------------------------------------------------------
 Calculating analytic gradient of the SCF energy
 Gradient of SCF Energy
            1           2           3           4
    1   0.0000183  -0.0000584   0.0000449  -0.0000049
    2  -0.0000755  -0.0001202   0.0001177   0.0000781
    3  -0.0000438   0.0000229   0.0000315  -0.0000106
 Max gradient component =       1.202E-04
 RMS gradient           =       6.419E-05
 Gradient time:  CPU 10.04 s  wall 1.57 s
 Geometry Optimization Parameters
   NAtoms,    NIC,     NZ,  NCons,   NDum,   NFix, NCnnct, MaxDiis
        4      14       0       0       0       0       0       0

 Cartesian Hessian Update
 Hessian Updated using BFGS Update


** GEOMETRY OPTIMIZATION IN DELOCALIZED INTERNAL COORDINATES **
   Searching for a Minimum

   Optimization Cycle:  25

                       Coordinates (Angstroms)
     ATOM                X               Y               Z
      1  Zr       -0.8903903978   -0.9901610663   -0.2658076582
      2  Zr        0.8888171398    0.9889754624   -0.2765116930
      3  O        -1.0186194997    0.9185014975    0.2733983683
      4  O         1.0213627577   -0.9165258936    0.2699609829
   Point Group: c1    Number of degrees of freedom:     6


   Energy is   -243.650702308

 Hessian Updated using BFGS Update

  6 Hessian modes will be used to form the next step
  Hessian Eigenvalues:
     0.086956    0.123889    0.148634    0.216625    2.166738    2.460099

 Minimum Search - Taking Simple RFO Step
 Searching for Lamda that Minimizes Along All modes
 Value Taken    Lamda =   0.00000000
 Step Taken.  Stepsize is  0.001166

                             Maximum     Tolerance    Cnvgd?
         Gradient           0.000144      0.000300     YES
         Displacement       0.001021      0.001200     YES
         Energy change      0.000000      0.000001     YES


                       Distance Matrix (Angstroms)
             Zr(  1)   Zr(  2)   O (  3)
   Zr(  2)  2.661330
   O (  3)  1.987506  1.986374
   O (  4)  1.986774  1.986740  2.743878
 
 Final energy is   -243.650702307983     


 ******************************
 **  OPTIMIZATION CONVERGED  **
 ******************************

                       Coordinates (Angstroms)
     ATOM                X               Y               Z
      1  Zr       -0.8903903978   -0.9901610663   -0.2658076582
      2  Zr        0.8888171398    0.9889754624   -0.2765116930
      3  O        -1.0186194997    0.9185014975    0.2733983683
      4  O         1.0213627577   -0.9165258936    0.2699609829

Z-matrix Print:
$molecule
0 3
Zr
O  1 1.986374
O  1 1.986740 2 87.357042
Zr 3 1.986774 1 84.098213 2 -30.584904 0
$end

 
 --------------------------------------------------------------
 
                    Orbital Energies (a.u.)
 --------------------------------------------------------------
 
 Alpha MOs
 -- Occupied --
-19.143 -19.143  -2.043  -2.034  -1.283  -1.256  -1.236  -1.235
 -1.233  -1.215  -0.887  -0.880  -0.360  -0.355  -0.354  -0.350
 -0.342  -0.314  -0.185  -0.157  -0.145
 -- Virtual --
 -0.073  -0.072  -0.058  -0.055  -0.053  -0.043  -0.041  -0.020
 -0.009  -0.007   0.028   0.035   0.039   0.045   0.055   0.078
  0.096   0.139   0.159   0.168   0.185   0.190   0.202   0.222
  0.223   0.228   0.231   0.232   0.255   0.265   0.268   0.272
  0.277   0.293   0.297   0.342   0.422   0.570   0.636   1.166
  1.167   1.236   1.250   1.271   1.282   1.623   1.744   1.793
  1.800   1.803   1.823   1.828   1.836   1.867   1.869   1.910
  1.919   8.506  10.221
 
 Beta MOs
 -- Occupied --
-19.143 -19.143  -2.029  -2.021  -1.267  -1.245  -1.224  -1.217
 -1.215  -1.199  -0.886  -0.879  -0.358  -0.353  -0.353  -0.344
 -0.334  -0.315  -0.167
 -- Virtual --
 -0.083  -0.081  -0.059  -0.050  -0.046  -0.038  -0.036  -0.033
 -0.029  -0.014   0.006   0.007   0.031   0.037   0.041   0.051
  0.057   0.084   0.105   0.157   0.162   0.178   0.192   0.193
  0.209   0.232   0.233   0.234   0.235   0.235   0.256   0.268
  0.275   0.279   0.288   0.301   0.304   0.353   0.427   0.574
  0.641   1.165   1.166   1.239   1.249   1.272   1.284   1.625
  1.744   1.792   1.801   1.802   1.824   1.828   1.837   1.868
  1.869   1.911   1.921   8.511  10.222
 --------------------------------------------------------------
 
          Ground-State Mulliken Net Atomic Charges

     Atom                 Charge (a.u.)    Spin (a.u.)
  --------------------------------------------------------
      1 Zr                    0.859467       0.958954
      2 Zr                    0.859331       0.956728
      3 O                    -0.859397       0.042133
      4 O                    -0.859401       0.042185
  --------------------------------------------------------
  Sum of atomic charges =     0.000000
  Sum of spin   charges =     2.000000

 -----------------------------------------------------------------
                    Cartesian Multipole Moments
 -----------------------------------------------------------------
    Charge (ESU x 10^10)
                 0.0000
    Dipole Moment (Debye)
         X      -0.0025      Y      -0.0038      Z      -0.4021
       Tot       0.4021
    Quadrupole Moments (Debye-Ang)
        XX     -54.8675     XY       8.8448     YY     -52.9898
        XZ      -0.0488     YZ      -0.0542     ZZ     -63.3581
    Octopole Moments (Debye-Ang^2)
       XXX       0.0376    XXY       0.0307    XYY       0.0352
       YYY       0.0293    XXZ       8.3060    XYZ       2.0125
       YYZ       8.7371    XZZ       0.0760    YZZ       0.0365
       ZZZ      45.0952
    Hexadecapole Moments (Debye-Ang^3)
      XXXX    -378.0517   XXXY     -83.5563   XXYY    -153.0665
      XYYY     -90.2919   YYYY    -415.2551   XXXZ       0.4443
      XXYZ       0.1376   XYYZ       0.1891   YYYZ       0.5060
      XXZZ    -102.9747   XYZZ     -38.3975   YYZZ    -111.1947
      XZZZ       0.6832   YZZZ       0.7215   ZZZZ    -193.3147
 -----------------------------------------------------------------
Archival summary:
1\1\hpc3451\OPT\ProcedureUnspecified\BasisUnspecified\r22(+,3)\liqiuy\FriJan1719:25:172020FriJan1719:25:172020\0\\#,OPT,ProcedureUnspecified,BasisUnspecified,\\56,3\Zr\O,1,1.98637\O,1,1.98674,2,87.357\Zr,3,1.98677,1,84.0982,2,-30.5849,0\\\@

 Total job time:  449.74s(wall), 3427.54s(cpu) 
 Fri Jan 17 19:25:17 2020

        *************************************************************
        *                                                           *
        *  Thank you very much for using Q-Chem.  Have a nice day.  *
        *                                                           *
        *************************************************************


0 sent ACK to 0 
now end server 0 ... 
cleanup process ... done
