
Running Job 1 of 2 ZrOx.in
qchem ZrOx.in_11058.0 /tmp/5732598.priya/ZrOx.save/ 1
/usr/usc/qchem/4.4/bin/mpi/mpirun_qchem -machinefile /usr/usc/qchem/4.4/bin/mpi/machines -np 1 /usr/usc/qchem/4.4/exe/qcprog.exe ZrOx.in_11058.0 /tmp/5732598.priya/ZrOx.save/

Process 0 of 1 is on hpc3935.hpcc.usc.edu - thread support 0
initial socket setup ...start
initial socket setup ...done 
now start server 0 ... 
Check license passed

                  Welcome to Q-Chem
     A Quantum Leap Into The Future Of Chemistry


 Q-Chem 4.4, Q-Chem, Inc., Pleasanton, CA (2016)

 Y. Shao,  Z. Gan,  E. Epifanovsky,  A. T. B. Gilbert,  M. Wormit,  
 J. Kussmann,  A. W. Lange,  A. Behn,  J. Deng,  X. Feng,  D. Ghosh,  
 M. Goldey,  P. R. Horn,  L. D. Jacobson,  I. Kaliman,  F.Rob,  
 R. Z. Khaliullin,  T. Kus,  A. Landau,  J. Liu,  E. I. Proynov,  Y. M. Rhee,  
 R. M. Richard,  M. A. Rohrdanz,  R. P. Steele,  E. J. Sundstrom,  
 H. L. Woodcock III,  P. M. Zimmerman,  D. Zuev,  B. Albrecht,  E. Alguire,  
 B. Austin,  S. A. Baeppler,  G. J. O. Beran,  Y. A. Bernard,  E. Berquist,  
 K. Brandhorst,  K. B. Bravaya,  S. T. Brown,  D. Casanova,  C.-M. Chang,  
 Y. Chen,  S. H. Chien,  K. D. Closser,  M. P. Coons,  D. L. Crittenden,  
 S. Dasgupta,  M. Diedenhofen,  R. A. DiStasio Jr.,  H. Do,  A. D. Dutoi,  
 R. G. Edgar,  P.-T. Fang,  S. Fatehi,  Q. Feng,  L. Fusti-Molnar,  
 A. Ghysels,  A. Golubeva-Zadorozhnaya,  J. Gomes,  A. Gunina,  
 M. W. D. Hanson-Heine,  P. H. P. Harbach,  A. W. Hauser,  E. G. Hohenstein,  
 Z. C. Holden,  K. Hui,  T.-C. Jagau,  H. Ji,  B. Kaduk,  K. Khistyaev,  
 Jaehoon Kim,  Jihan Kim,  R. A. King,  P. Klunzinger,  D. Kosenkov,  
 T. Kowalczyk,  C. M. Krauter,  A. Kunitsa,  K. U. Lao,  A. Laurent,  
 K. V. Lawler,  D. Lefrancois,  S. Lehtola,  S. V. Levchenko,  C. Y. Lin,  
 Y.-S. Lin,  F. Liu,  E. Livshits,  R. C. Lochan,  A. Luenser,  P. Manohar,  
 S. F. Manzer,  S.-P. Mao,  Y. Mao,  N. Mardirossian,  A. V. Marenich,  
 L. A. Martinez-Martinez,  S. A. Maurer,  N. J. Mayhall,  J.-M. Mewes,  
 A. F. Morrison,  K. Nanda,  C. M. Oana,  R. Olivares-Amaya,  D. P. O'Neill,  
 J. A. Parkhill,  T. M. Perrine,  R. Peverati,  P. A. Pieniazek,  F. Plasser,  
 A. Prociuk,  D. R. Rehn,  E. Rosta,  N. J. Russ,  N. Sergueev,  
 S. M. Sharada,  S. Sharma,  D. W. Small,  A. Sodt,  T. Stauch,  T. Stein,  
 D. Stuck,  Y.-C. Su,  A. J. W. Thom,  T. Tsuchimochi,  L. Vogt,  O. Vydrov,  
 T. Wang,  M. A. Watson,  J. Wenzel,  A. White,  C. F. Williams,  
 V. Vanovschi,  S. Yeganeh,  S. R. Yost,  Z.-Q. You,  I. Y. Zhang,  X. Zhang,  
 Y. Zhao,  B. R. Brooks,  G. K. L. Chan,  D. M. Chipman,  C. J. Cramer,  
 W. A. Goddard III,  M. S. Gordon,  W. J. Hehre,  A. Klamt,  
 H. F. Schaefer III,  M. W. Schmidt,  C. D. Sherrill,  D. G. Truhlar,  
 A. Warshel,  X. Xu,  A. Aspuru-Guzik,  R. Baer,  A. T. Bell,  N. A. Besley,  
 J.-D. Chai,  A. Dreuw,  B. D. Dunietz,  T. R. Furlani,  S. R. Gwaltney,  
 C.-P. Hsu,  Y. Jung,  J. Kong,  D. S. Lambrecht,  W. Liang,  C. Ochsenfeld,  
 V. A. Rassolov,  L. V. Slipchenko,  J. E. Subotnik,  T. Van Voorhis,  
 J. M. Herbert,  A. I. Krylov,  P. M. W. Gill,  M. Head-Gordon

 Contributors to earlier versions of Q-Chem not listed above: 
 R. D. Adamson,  J. Baker,  E. F. C. Byrd,  A. K. Chakraborty,  C.-L. Cheng,  
 H. Dachsel,  R. J. Doerksen,  G. Hawkins,  A. Heyden,  S. Hirata,  
 G. Kedziora,  F. J. Keil,  C. Kelley,  P. P. Korambath,  W. Kurlancheek,  
 A. M. Lee,  M. S. Lee,  D. Liotard,  I. Lotan,  P. E. Maslen,  N. Nair,  
 D. Neuhauser,  R. Olson,  B. Peters,  J. Ritchie,  N. E. Schultz,  
 N. Shenvi,  A. C. Simmonett,  K. S. Thanthiriwatte,  Q. Wu,  W. Zhang

 Please cite Q-Chem as follows:
 Y. Shao et al., Mol. Phys. 113, 184-215 (2015)
 DOI: 10.1080/00268976.2014.952696

 Q-Chem 4.4.1 for Intel X86 Linux

 Parts of Q-Chem use Armadillo 5.200.1 (Boston Tea Smuggler).
 http://arma.sourceforge.net/

 Q-Chem begins on Fri Jan 17 19:18:03 2020  

Host: 
0

     Scratch files written to /tmp/5732598.priya/ZrOx.save//
 Jul2716 11668_ 21447  21445 5558   
 Parallel job on  1  processors
Processing $rem in /usr/usc/qchem/4.4/config/preferences.
 MEM_TOTAL  2000 

Checking the input file for inconsistencies... 	...done.

--------------------------------------------------------------
User input:
--------------------------------------------------------------
$comment
--------------------------------------------------------
A SINGLE POINT DFT CALCULATION WITH BASIS SET PROJECTION
--------------------------------------------------------
$end

$molecule
0 1
Zr -1.25296 0.60649 0.08904
Zr 0.76536 -0.06001 -0.42518
O 2.24633 -0.48609 0.90584
S -1.06739 -1.60748 0.17381
O 2.20763 0.85510 0.44875
$end

$rem
JOBTYPE   SP
METHOD   B3LYP
BASIS   GEN
ECP   GEN
MAX_SCF_CYCLES   200
SCF_CONVERGENCE 8
SCF_PRINT 1
PDB_PRINT 2
THRESH 14
VARTHRESH 14
INCDFT FALSE
SYMMETRY False
Sym_ignore True
SCF_ALGORITHM GDM
XC_GRID 000128000302
DFT_D           EMPIRICAL_GRIMME3
DFT_D3_S6       1000
DFT_D3_RS6     1261
DFT_D3_S8      1703
DFT_D3_3BODY    FALSE
$end

$basis
O
6-31+G**
****
S
6-31+G**
****
Zr
LanL2DZ
****
$end

$ecp
Zr
LanL2DZ
****
$end

--------------------------------------------------------------
 ----------------------------------------------------------------
             Standard Nuclear Orientation (Angstroms)
    I     Atom           X                Y                Z
 ----------------------------------------------------------------
    1      Zr     -1.2529600000     0.6064900000     0.0890400000
    2      Zr      0.7653600000    -0.0600100000    -0.4251800000
    3      O       2.2463300000    -0.4860900000     0.9058400000
    4      S      -1.0673900000    -1.6074800000     0.1738100000
    5      O       2.2076300000     0.8551000000     0.4487500000
 ----------------------------------------------------------------
 Nuclear Repulsion Energy =   260.4901414867 hartrees
 There are       28 alpha and       28 beta electrons

 Q-Chem warning in module /home/scratch/svnadmin/11668_zgan/qchem/forms1/BasisType.C, line 1419:

 Setting pure/cartesian flag to 2111 for general basis


 Requested basis set is non-standard
 There are 32 shells and 102 basis functions

 Total QAlloc Memory Limit   2000 MB
 Mega-Array Size        61 MB
 MEM_STATIC part        62 MB

                       Distance Matrix (Angstroms)
             Zr(  1)   Zr(  2)   O (  3)   S (  4)
   Zr(  2)  2.186838
   O (  3)  3.755785  2.036279
   S (  4)  2.223350  2.472332  3.574091
   O (  5)  3.488106  1.918677  1.417469  4.106781
 
 A cutoff of  1.0D-14 yielded    517 shell pairs
 There are      5332 function pairs (      6102 Cartesian)
 
 -------------------------------------------------------
 OpenMP Integral Computing Module                       
 Release: version 1.0, May 2013, Q-Chem Inc. Pittsburgh 
 -------------------------------------------------------
 Integral Job Info:
 Integral job number is                      11
 Integral operator is                         1
 short-range coefficients                     0
 long-range coefficients              100000000
 Omega coefficients                           0
 if combine SR and LR in K                    0
 Integral screening is                        0
 Integral computing path is                   2
 max size of driver memory is            800000
 size of driver memory is                593474
 size of scratch memory is             15166112
 max col of scratch BK array               1296
 max len of scratch array in speh3          155
 max len of scratch index in speh4           18
 max int batch size is                      520
 min int batch size is                       52
 fixed nKL is                                52
 max L of basis functions is                  2
 order of int derivative is                   0
 number of shells is                         32
 number of basis is                         109
 number of cartesian basis is               109
 number of contracted shell pairs           517
 number of primitive shell pairs           2640
 maxK2 (contraction) of shell pair           36
 max number of K2 of shell pair               1
 max number of CS2 of shell pair             31
 max number of PS2 of shell pair            168
 mem total for path MDJ                   23734
 -------------------------------------------------------
 Requested basis set is non-standard
 Compound shells will be simplified
 There are 42 shells and 102 basis functions
 A cutoff of  1.0D-14 yielded    884 shell pairs
 There are      5302 function pairs (      6072 Cartesian)
 Smallest overlap matrix eigenvalue = 8.30E-04

 Scale SEOQF with 1.000000e-01/1.000000e-01/1.000000e-01

 Standard Electronic Orientation quadrupole field applied
 Nucleus-field energy     =     0.0000000071 hartrees
 Guess MOs from core Hamiltonian diagonalization
 A restricted hybrid HF-DFT SCF calculation will be
 performed using Geometric Direct Minimization
 Exchange:     0.2000 Hartree-Fock + 0.0800 Slater + 0.7200 B88
 Correlation:  0.1900 VWN1RPA + 0.8100 LYP
 Using Euler-Maclaurin-Lebedev (128,302) quadrature formula
 Dispersion:   Grimme D3
 SCF converges when RMS gradient is below 1.0E-08
 Maximum number of minimization steps = 200
 using 12 threads for integral computing 
 -------------------------------------------------------
 OpenMP BLAS3 based DFT computing Module                
 Release: version 1.0, May 2013, Q-Chem Inc. Pittsburgh 
 -------------------------------------------------------
 
   ------------------- Entering Geometric Direct Minimization ------------------
   GDM:         diagonal hessian shift is      0.000000000000000E+000
   GDM::PreWSS: input subspace size is                  1
   GDM::PreWSS: working subspace size set to            1
   GDM::PrEWSS: # of linearly dependent vectors =            0
   GDM::PrEWSS: Max dev from orthonormality =   0.000000000000000E+000
   GDM::BFGS:   lowest Hinv e-value     1.00000000000000     
   GDM::BFGS:   highest Hinv e-value    1.00000000000000     
   GDM::      : max scaling in EWCs is          1.41421356237309     
   GDM::      : max rotation in step is        0.138696560921848     
   GDM::        grad.step =   -2.25681440216177     
   ------- Leaving GDM -- hopefully with a step in the right direction! --------
 
 ---------------------------------------
  Cycle       Energy        RMS Gradient
 ---------------------------------------
    1    -613.6051633622      2.03E+00  Gap = 0.00 eV  Descent step
 
   ------------------- Entering Geometric Direct Minimization ------------------
   GDM::trust : actual energy change is        -4.38367777313738     
   GDM::trust : predicted energy change was   -0.163350000000000     
   GDM::trust : updated trust radius is        0.330000000000000     
   GDM:         diagonal hessian shift is      0.000000000000000E+000
   GDM::PreWSS: input subspace size is                  2
   GDM::PreWSS: working subspace size set to            2
   GDM::PrEWSS: # of linearly dependent vectors =            0
   GDM::PrEWSS: Max dev from orthonormality =   9.627715291671279E-015
   GDM::BFGS:   lowest Hinv e-value    0.505958725229262     
   GDM::BFGS:   highest Hinv e-value    2.11571663352566     
   GDM::      : max scaling in EWCs is          1.41421356237309     
   GDM::      : max rotation in step is       -9.851043975031179E-002
   GDM::        grad.step =   -2.01110646438980     
   ------- Leaving GDM -- hopefully with a step in the right direction! --------
 
    2    -617.9888411353      1.79E+00  Gap = 0.00 eV  Descent step
 
   ------------------- Entering Geometric Direct Minimization ------------------
   GDM::trust : actual energy change is        -3.92200685577461     
   GDM::trust : predicted energy change was   -0.143318018462651     
   GDM::trust : updated trust radius is        0.330000000000000     
   GDM::search:  On step            1 .  The current bracket is:
       left   : x =  0.0000E+00, e =      -617.9888411353, g = -0.6285E+01
       current: x =  0.3200E+00, e =      -621.9108479911, g = -0.5914E+01
       right  : x =  0.1000E+04, e =      1000.0000000000, g =  0.1000E+04
       next   : x =  0.3200E+01
   GDM::      : max rotation in step is       -0.985104397503118     
   ------- Leaving GDM -- hopefully with a step in the right direction! --------
 
    3    -621.9108479911      4.53E-01  Gap = 0.00 eV  Line search: understep
 
   ------------------- Entering Geometric Direct Minimization ------------------
   GDM::trust : actual energy change is        -8.59010686960391     
   GDM::trust : predicted energy change was   -0.143318018462651     
   GDM::trust : updated trust radius is        0.330000000000000     
   GDM:         diagonal hessian shift is      0.000000000000000E+000
   GDM::PreWSS: input subspace size is                  3
   GDM::PreWSS: working subspace size set to            3
   GDM::PrEWSS: # of linearly dependent vectors =            0
   GDM::PrEWSS: Max dev from orthonormality =   4.350686477749832E-015
   GDM::BFGS:   lowest Hinv e-value    0.214815567904366     
   GDM::BFGS:   highest Hinv e-value    2.36364715910570     
   GDM::      : max scaling in EWCs is          2.82842712474619     
   GDM::      : max rotation in step is        0.363254035117429     
   GDM::        grad.step =   -2.08672039525005     
   ------- Leaving GDM -- hopefully with a step in the right direction! --------
 
    4    -626.5789480049      2.58E+00  Gap = 0.00 eV  Descent step
 
   ------------------- Entering Geometric Direct Minimization ------------------
   GDM::trust : actual energy change is        -3.75835792804867     
   GDM::trust : predicted energy change was   -0.317231328733422     
   GDM::trust : updated trust radius is        0.330000000000000     
   GDM:         diagonal hessian shift is      0.000000000000000E+000
   GDM::PreWSS: input subspace size is                  4
   GDM::PreWSS: working subspace size set to            4
   GDM::PrEWSS: # of linearly dependent vectors =            0
   GDM::PrEWSS: Max dev from orthonormality =   5.010922232706605E-014
   GDM::BFGS:   lowest Hinv e-value    0.451571926082721     
   GDM::BFGS:   highest Hinv e-value    2.55073255720921     
   GDM::      : max scaling in EWCs is          2.82842712474619     
   GDM::      : max rotation in step is        0.110179115464105     
   GDM::        grad.step =   -1.23251834652264     
   ------- Leaving GDM -- hopefully with a step in the right direction! --------
 
    5    -630.3373059330      1.12E+00  Gap = 0.00 eV  Descent step
 
   ------------------- Entering Geometric Direct Minimization ------------------
   GDM::trust : actual energy change is        -2.35089412552622     
   GDM::trust : predicted energy change was   -0.189952190143886     
   GDM::trust : updated trust radius is        0.330000000000000     
   GDM:         diagonal hessian shift is      0.000000000000000E+000
   GDM::PreWSS: input subspace size is                  5
   GDM::PreWSS: working subspace size set to            5
   GDM::PrEWSS: # of linearly dependent vectors =            0
   GDM::PrEWSS: Max dev from orthonormality =   3.482682892075317E-013
   GDM::BFGS:   lowest Hinv e-value    0.310185453385060     
   GDM::BFGS:   highest Hinv e-value    3.39040585695889     
   GDM::      : max scaling in EWCs is          2.82842712474619     
   GDM::      : max rotation in step is       -0.366313956851598     
   GDM::        grad.step =   -1.38183067614558     
   ------- Leaving GDM -- hopefully with a step in the right direction! --------
 
    6    -632.6882000585      1.95E+00  Gap = 0.00 eV  Descent step
 
   ------------------- Entering Geometric Direct Minimization ------------------
   GDM::trust : actual energy change is        -2.29948265143059     
   GDM::trust : predicted energy change was   -0.155149898450964     
   GDM::trust : updated trust radius is        0.330000000000000     
   GDM:         diagonal hessian shift is      0.000000000000000E+000
   GDM::PreWSS: input subspace size is                  6
   GDM::PreWSS: working subspace size set to            6
   GDM::PrEWSS: # of linearly dependent vectors =            0
   GDM::PrEWSS: Max dev from orthonormality =   1.740760313673206E-013
   GDM::BFGS:   lowest Hinv e-value    0.308641218084545     
   GDM::BFGS:   highest Hinv e-value    2.46530107981534     
   GDM::      : max scaling in EWCs is          2.82842712474619     
   GDM::      : max rotation in step is       -0.119097210059252     
   GDM::        grad.step =  -0.841039299713984     
   ------- Leaving GDM -- hopefully with a step in the right direction! --------
 
    7    -634.9876827100      4.46E-01  Gap = 0.00 eV  Descent step
 
   ------------------- Entering Geometric Direct Minimization ------------------
   GDM::trust : actual energy change is        -1.54683856975907     
   GDM::trust : predicted energy change was   -0.166603096353954     
   GDM::trust : updated trust radius is        0.330000000000000     
   GDM:         diagonal hessian shift is      0.000000000000000E+000
   GDM::PreWSS: input subspace size is                  7
   GDM::PreWSS: working subspace size set to            7
   GDM::PrEWSS: # of linearly dependent vectors =            0
   GDM::PrEWSS: Max dev from orthonormality =   1.075441818931822E-013
   GDM::BFGS:   lowest Hinv e-value    0.358346357508242     
   GDM::BFGS:   highest Hinv e-value    2.54077584121817     
   GDM::      : max scaling in EWCs is          2.82842712474619     
   GDM::      : max rotation in step is        0.199633727493309     
   GDM::        grad.step =  -0.701491330682049     
   ------- Leaving GDM -- hopefully with a step in the right direction! --------
 
    8    -636.5345212797      4.92E-01  Gap = 0.00 eV  Descent step
 
   ------------------- Entering Geometric Direct Minimization ------------------
   GDM::trust : actual energy change is        -1.26515354545904     
   GDM::trust : predicted energy change was   -0.150537749442386     
   GDM::trust : updated trust radius is        0.330000000000000     
   GDM:         diagonal hessian shift is      0.000000000000000E+000
   GDM::PreWSS: input subspace size is                  8
   GDM::PreWSS: working subspace size set to            8
   GDM::PrEWSS: # of linearly dependent vectors =            0
   GDM::PrEWSS: Max dev from orthonormality =   2.002981114301861E-013
   GDM::BFGS:   lowest Hinv e-value    0.326586719191736     
   GDM::BFGS:   highest Hinv e-value    2.67934920963799     
   GDM::      : max scaling in EWCs is          2.82842712474619     
   GDM::      : max rotation in step is       -0.169581656231403     
   GDM::        grad.step =  -0.599507158888402     
   ------- Leaving GDM -- hopefully with a step in the right direction! --------
 
    9    -637.7996748252      4.54E-01  Gap = 0.00 eV  Descent step
 
   ------------------- Entering Geometric Direct Minimization ------------------
   GDM::trust : actual energy change is        -1.07652289393559     
   GDM::trust : predicted energy change was   -0.151585067548836     
   GDM::trust : updated trust radius is        0.330000000000000     
   GDM:         diagonal hessian shift is      0.000000000000000E+000
   GDM::PreWSS: input subspace size is                  9
   GDM::PreWSS: working subspace size set to            9
   GDM::PrEWSS: # of linearly dependent vectors =            0
   GDM::PrEWSS: Max dev from orthonormality =   9.657396410345243E-013
   GDM::BFGS:   lowest Hinv e-value    0.268746321121409     
   GDM::BFGS:   highest Hinv e-value    2.94648542372655     
   GDM::      : max scaling in EWCs is          2.82842712474619     
   GDM::      : max rotation in step is        0.175611102793660     
   GDM::        grad.step =  -0.514314971487520     
   ------- Leaving GDM -- hopefully with a step in the right direction! --------
 
   10    -638.8761977191      3.33E-01  Gap = 0.00 eV  Descent step
 
   ------------------- Entering Geometric Direct Minimization ------------------
   GDM::trust : actual energy change is       -0.836738048213533     
   GDM::trust : predicted energy change was   -0.149129594389720     
   GDM::trust : updated trust radius is        0.330000000000000     
   GDM:         diagonal hessian shift is      0.000000000000000E+000
   GDM::PreWSS: input subspace size is                 10
   GDM::PreWSS: working subspace size set to           10
   GDM::PrEWSS: # of linearly dependent vectors =            0
   GDM::PrEWSS: Max dev from orthonormality =   2.152722444748179E-013
   GDM::BFGS:   lowest Hinv e-value    0.238735614548177     
   GDM::BFGS:   highest Hinv e-value    3.03378710958394     
   GDM::      : max scaling in EWCs is          2.82842712474619     
   GDM::      : max rotation in step is       -0.222232831208928     
   GDM::        grad.step =  -0.424041573497604     
   ------- Leaving GDM -- hopefully with a step in the right direction! --------
 
   11    -639.7129357673      3.06E-01  Gap = 0.00 eV  Descent step
 
   ------------------- Entering Geometric Direct Minimization ------------------
   GDM::trust : actual energy change is       -0.681517467889080     
   GDM::trust : predicted energy change was   -0.152695055126585     
   GDM::trust : updated trust radius is        0.330000000000000     
   GDM:         diagonal hessian shift is      0.000000000000000E+000
   GDM::PreWSS: input subspace size is                 11
   GDM::PreWSS: working subspace size set to           11
   GDM::PrEWSS: # of linearly dependent vectors =            0
   GDM::PrEWSS: Max dev from orthonormality =   5.449252160616425E-013
   GDM::BFGS:   lowest Hinv e-value    0.226694290575110     
   GDM::BFGS:   highest Hinv e-value    3.40558619829203     
   GDM::      : max scaling in EWCs is          2.82842712474619     
   GDM::      : max rotation in step is       -0.167425801514390     
   GDM::        grad.step =  -0.288662270039361     
   ------- Leaving GDM -- hopefully with a step in the right direction! --------
 
   12    -640.3944532352      2.28E-01  Gap = 0.00 eV  Descent step
 
   ------------------- Entering Geometric Direct Minimization ------------------
   GDM::trust : actual energy change is       -0.399258972658572     
   GDM::trust : predicted energy change was   -0.161605838823132     
   GDM::trust : updated trust radius is        0.330000000000000     
   GDM:         diagonal hessian shift is      0.000000000000000E+000
   GDM::PreWSS: input subspace size is                 12
   GDM::PreWSS: working subspace size set to           12
   GDM::PrEWSS: # of linearly dependent vectors =            0
   GDM::PrEWSS: Max dev from orthonormality =   4.100235775905681E-013
   GDM::BFGS:   lowest Hinv e-value    0.126359232860605     
   GDM::BFGS:   highest Hinv e-value    3.13889936805064     
   GDM::      : max scaling in EWCs is          2.82842712474619     
   GDM::      : max rotation in step is       -0.301655822031035     
   GDM::        grad.step =  -0.286541179755680     
   ------- Leaving GDM -- hopefully with a step in the right direction! --------
 
   13    -640.7937122079      2.81E-01  Gap = 0.00 eV  Descent step
 
   ------------------- Entering Geometric Direct Minimization ------------------
   GDM::trust : actual energy change is        0.507110021536050     
   GDM::trust : predicted energy change was   -0.314047413009132     
   GDM::trust : updated trust radius is        0.108900000000000     
   GDM::search:  On step            1 .  The current bracket is:
       left   : x =  0.0000E+00, e =      -640.7937122079, g = -0.4002E+00
       current: x =  0.7160E+00, e =      -640.2866021863, g =  0.1268E+01
       right  : x =  0.1000E+04, e =      1000.0000000000, g =  0.1000E+04
       next   : x =  0.1292E+00
   GDM::      : max rotation in step is       -5.445516555903870E-002
   ------- Leaving GDM -- hopefully with a step in the right direction! --------
 
   14    -640.2866021863      3.77E-02  Gap = 0.00 eV  Line search: overstep
 
   ------------------- Entering Geometric Direct Minimization ------------------
   GDM::trust : actual energy change is       -7.738097856804416E-002
   GDM::trust : predicted energy change was   -0.314047413009132     
   GDM::trust : updated trust radius is        0.108900000000000     
   GDM:         diagonal hessian shift is      0.000000000000000E+000
   GDM::PreWSS: input subspace size is                 13
   GDM::PreWSS: working subspace size set to           13
   GDM::PrEWSS: # of linearly dependent vectors =            0
   GDM::PrEWSS: Max dev from orthonormality =   2.115044250849962E-013
   GDM::BFGS:   lowest Hinv e-value    0.111845393352871     
   GDM::BFGS:   highest Hinv e-value    3.27950935181698     
   GDM::      : max scaling in EWCs is          2.82842712474619     
   GDM::      : max rotation in step is       -7.116630848917548E-002
   GDM::        grad.step =  -5.861859797165108E-002
   ------- Leaving GDM -- hopefully with a step in the right direction! --------
 
   15    -640.8710931864      1.35E-01  Gap = -47.13 eV  Descent step
 
   ------------------- Entering Geometric Direct Minimization ------------------
   GDM::trust : actual energy change is       -0.101955475880118     
   GDM::trust : predicted energy change was   -1.818325481014012E-002
   GDM::trust : updated trust radius is        0.330000000000000     
   GDM:         diagonal hessian shift is      0.000000000000000E+000
   GDM::PreWSS: input subspace size is                 14
   GDM::PreWSS: working subspace size set to           14
   GDM::PrEWSS: # of linearly dependent vectors =            0
   GDM::PrEWSS: Max dev from orthonormality =   5.413308690194185E-013
   GDM::BFGS:   lowest Hinv e-value    0.108624207562196     
   GDM::BFGS:   highest Hinv e-value    3.39256718903456     
   GDM::      : max scaling in EWCs is          2.82842712474619     
   GDM::      : max rotation in step is       -0.302387462307942     
   GDM::        grad.step =  -0.154956605408859     
   ------- Leaving GDM -- hopefully with a step in the right direction! --------
 
   16    -640.9730486623      1.52E-01  Gap = -47.13 eV  Descent step
 
   ------------------- Entering Geometric Direct Minimization ------------------
   GDM::trust : actual energy change is       -0.232673970494261     
   GDM::trust : predicted energy change was   -0.174117669553774     
   GDM::trust : updated trust radius is        0.330000000000000     
   GDM:         diagonal hessian shift is      0.000000000000000E+000
   GDM::PreWSS: input subspace size is                 15
   GDM::PreWSS: working subspace size set to           15
   GDM::PrEWSS: # of linearly dependent vectors =            0
   GDM::PrEWSS: Max dev from orthonormality =   3.491564676272318E-013
   GDM::BFGS:   lowest Hinv e-value    0.168067448278427     
   GDM::BFGS:   highest Hinv e-value    4.50048175493230     
   GDM::      : max scaling in EWCs is          2.82842712474619     
   GDM::      : max rotation in step is       -0.421840177650793     
   GDM::        grad.step =  -0.161495396259041     
   ------- Leaving GDM -- hopefully with a step in the right direction! --------
 
   17    -641.2057226328      2.21E-01  Gap = -47.13 eV  Descent step
 
   ------------------- Entering Geometric Direct Minimization ------------------
   GDM::trust : actual energy change is        0.379650058077118     
   GDM::trust : predicted energy change was   -0.257096877938704     
   GDM::trust : updated trust radius is        0.108900000000000     
   GDM::search:  On step            1 .  The current bracket is:
       left   : x =  0.0000E+00, e =      -641.2057226328, g = -0.1938E+00
       current: x =  0.8332E+00, e =      -640.8260725747, g =  0.5485E+00
       right  : x =  0.1000E+04, e =      1000.0000000000, g =  0.1000E+04
       next   : x =  0.1243E+00
   GDM::      : max rotation in step is       -6.294541153567526E-002
   ------- Leaving GDM -- hopefully with a step in the right direction! --------
 
   18    -640.8260725747      5.30E-02  Gap = -47.13 eV  Line search: overstep
 
   ------------------- Entering Geometric Direct Minimization ------------------
   GDM::trust : actual energy change is       -3.331536250493627E-002
   GDM::trust : predicted energy change was   -0.257096877938704     
   GDM::trust : updated trust radius is        0.108900000000000     
   GDM:         diagonal hessian shift is      0.000000000000000E+000
   GDM::PreWSS: input subspace size is                 16
   GDM::PreWSS: working subspace size set to           16
   GDM::PrEWSS: # of linearly dependent vectors =            0
   GDM::PrEWSS: Max dev from orthonormality =   5.417888360170764E-013
   GDM::BFGS:   lowest Hinv e-value    0.101645185243164     
   GDM::BFGS:   highest Hinv e-value    3.64760543223056     
   GDM::      : max scaling in EWCs is          2.82842712474619     
   GDM::      : max rotation in step is       -0.171500072100399     
   GDM::        grad.step =  -3.455092855507624E-002
   ------- Leaving GDM -- hopefully with a step in the right direction! --------
 
   19    -641.2390379953      1.77E-01  Gap = -47.13 eV  Descent step
 
   ------------------- Entering Geometric Direct Minimization ------------------
   GDM::trust : actual energy change is       -6.361764994187524E-002
   GDM::trust : predicted energy change was   -1.593087536433769E-002
   GDM::trust : updated trust radius is        0.330000000000000     
   GDM:         diagonal hessian shift is      0.000000000000000E+000
   GDM::PreWSS: input subspace size is                 17
   GDM::PreWSS: working subspace size set to           17
   GDM::PrEWSS: # of linearly dependent vectors =            0
   GDM::PrEWSS: Max dev from orthonormality =   8.278933094629792E-013
   GDM::BFGS:   lowest Hinv e-value    0.123589149294567     
   GDM::BFGS:   highest Hinv e-value    5.48966408078159     
   GDM::trust : dogleg step length is          0.330000000000000     
   GDM::      : max scaling in EWCs is          2.82842712474619     
   GDM::      : max rotation in step is        0.395237963731446     
   GDM::        grad.step =  -8.597936726496522E-002
   ------- Leaving GDM -- hopefully with a step in the right direction! --------
 
   20    -641.3026556453      1.12E-01  Gap = -47.13 eV  Dog-leg BFGS step
 
   ------------------- Entering Geometric Direct Minimization ------------------
   GDM::trust : actual energy change is       -9.409573895436552E-002
   GDM::trust : predicted energy change was   -9.696650084710094E-002
   GDM::trust : updated trust radius is        0.330000000000000     
   GDM:         diagonal hessian shift is      0.000000000000000E+000
   GDM::PreWSS: input subspace size is                 18
   GDM::PreWSS: working subspace size set to           18
   GDM::PrEWSS: # of linearly dependent vectors =            0
   GDM::PrEWSS: Max dev from orthonormality =   3.930605840807289E-013
   GDM::BFGS:   lowest Hinv e-value    0.144662940161307     
   GDM::BFGS:   highest Hinv e-value    3.73923092595183     
   GDM::      : max scaling in EWCs is          2.82842712474619     
   GDM::      : max rotation in step is       -0.259059754124278     
   GDM::        grad.step =  -4.886249487320888E-002
   ------- Leaving GDM -- hopefully with a step in the right direction! --------
 
   21    -641.3967513842      7.95E-02  Gap = -47.13 eV  Normal BFGS step
 
   ------------------- Entering Geometric Direct Minimization ------------------
   GDM::trust : actual energy change is       -2.452662697305641E-002
   GDM::trust : predicted energy change was   -7.329374230981331E-002
   GDM::trust : updated trust radius is        0.330000000000000     
   GDM:         diagonal hessian shift is      0.000000000000000E+000
   GDM::PreWSS: input subspace size is                 19
   GDM::PreWSS: working subspace size set to           18
   GDM::PrEWSS: # of linearly dependent vectors =            0
   GDM::PrEWSS: Max dev from orthonormality =   4.526847646735277E-013
   GDM::BFGS:   lowest Hinv e-value    0.123816668756659     
   GDM::BFGS:   highest Hinv e-value    3.82953476649943     
   GDM::      : max scaling in EWCs is          2.82842712474619     
   GDM::      : max rotation in step is        0.425749939921360     
   GDM::        grad.step =  -7.493353476217005E-002
   ------- Leaving GDM -- hopefully with a step in the right direction! --------
 
   22    -641.4212780112      1.51E-01  Gap = -47.13 eV  Normal BFGS step
 
   ------------------- Entering Geometric Direct Minimization ------------------
   GDM::trust : actual energy change is       -4.931870491350310E-002
   GDM::trust : predicted energy change was   -0.112400302143255     
   GDM::trust : updated trust radius is        0.330000000000000     
   GDM:         diagonal hessian shift is      0.000000000000000E+000
   GDM::PreWSS: input subspace size is                 19
   GDM::PreWSS: working subspace size set to           18
   GDM::PrEWSS: # of linearly dependent vectors =            0
   GDM::PrEWSS: Max dev from orthonormality =   3.705612205973097E-013
   GDM::BFGS:   lowest Hinv e-value    0.114971914320376     
   GDM::BFGS:   highest Hinv e-value    4.66912884989993     
   GDM::      : max scaling in EWCs is          2.82842712474619     
   GDM::      : max rotation in step is       -0.243943202182054     
   GDM::        grad.step =  -0.155264180924072     
   ------- Leaving GDM -- hopefully with a step in the right direction! --------
 
   23    -641.4705967161      1.88E-01  Gap = 0.00 eV  Descent step
 
   ------------------- Entering Geometric Direct Minimization ------------------
   GDM::trust : actual energy change is        3.519544070843494E-002
   GDM::trust : predicted energy change was   -0.342999925867477     
   GDM::trust : updated trust radius is        0.108900000000000     
   GDM::search:  On step            1 .  The current bracket is:
       left   : x =  0.0000E+00, e =      -641.4705967161, g = -0.2739E+00
       current: x =  0.5669E+00, e =      -641.4354012754, g =  0.2843E+00
       right  : x =  0.1000E+04, e =      1000.0000000000, g =  0.1000E+04
       next   : x =  0.2311E+00
   GDM::      : max rotation in step is       -9.943220813457561E-002
   ------- Leaving GDM -- hopefully with a step in the right direction! --------
 
   24    -641.4354012754      4.37E-02  Gap = 0.00 eV  Line search: overstep
 
   ------------------- Entering Geometric Direct Minimization ------------------
   GDM::trust : actual energy change is       -6.508782481648723E-002
   GDM::trust : predicted energy change was   -0.342999925867477     
   GDM::trust : updated trust radius is        0.108900000000000     
   GDM:         diagonal hessian shift is      0.000000000000000E+000
   GDM::PreWSS: input subspace size is                 19
   GDM::PreWSS: working subspace size set to           18
   GDM::PrEWSS: # of linearly dependent vectors =            0
   GDM::PrEWSS: Max dev from orthonormality =   3.463600933839572E-013
   GDM::BFGS:   lowest Hinv e-value    0.137863641790947     
   GDM::BFGS:   highest Hinv e-value    5.87238555804741     
   GDM::      : max scaling in EWCs is          2.82842712474619     
   GDM::      : max rotation in step is        0.145969400034189     
   GDM::        grad.step =  -2.748389165358218E-002
   ------- Leaving GDM -- hopefully with a step in the right direction! --------
 
   25    -641.5356845409      1.20E-01  Gap = 0.00 eV  Descent step
 
   ------------------- Entering Geometric Direct Minimization ------------------
   GDM::trust : actual energy change is       -3.071374731894139E-002
   GDM::trust : predicted energy change was   -3.191860309621393E-002
   GDM::trust : updated trust radius is        0.330000000000000     
   GDM:         diagonal hessian shift is      0.000000000000000E+000
   GDM::PreWSS: input subspace size is                 19
   GDM::PreWSS: working subspace size set to           18
   GDM::PrEWSS: # of linearly dependent vectors =            0
   GDM::PrEWSS: Max dev from orthonormality =   2.376024724193293E-013
   GDM::BFGS:   lowest Hinv e-value    0.184697790627933     
   GDM::BFGS:   highest Hinv e-value    5.31882823978881     
   GDM::trust : dogleg step length is          0.330000000000000     
   GDM::      : max scaling in EWCs is          2.82842712474619     
   GDM::      : max rotation in step is        0.533750606883935     
   GDM::        grad.step =  -6.250262397544500E-002
   ------- Leaving GDM -- hopefully with a step in the right direction! --------
 
   26    -641.5663982882      1.16E-01  Gap = 0.00 eV  Dog-leg BFGS step
 
   ------------------- Entering Geometric Direct Minimization ------------------
   GDM::trust : actual energy change is        6.150096397504967E-003
   GDM::trust : predicted energy change was   -0.101468091327171     
   GDM::trust : updated trust radius is        0.108900000000000     
   GDM::search:  On step            1 .  The current bracket is:
       left   : x =  0.0000E+00, e =      -641.5663982882, g = -0.8050E-01
       current: x =  0.7765E+00, e =      -641.5602481918, g =  0.9772E-01
       right  : x =  0.1000E+04, e =      1000.0000000000, g =  0.1000E+04
       next   : x =  0.3535E+00
   GDM::      : max rotation in step is        0.242967891858490     
   ------- Leaving GDM -- hopefully with a step in the right direction! --------
 
   27    -641.5602481918      3.93E-02  Gap = 0.00 eV  Line search: overstep
 
   ------------------- Entering Geometric Direct Minimization ------------------
   GDM::trust : actual energy change is       -3.423027288272351E-002
   GDM::trust : predicted energy change was   -0.101468091327171     
   GDM::trust : updated trust radius is        0.108900000000000     
   GDM:         diagonal hessian shift is      0.000000000000000E+000
   GDM::PreWSS: input subspace size is                 19
   GDM::PreWSS: working subspace size set to           18
   GDM::PrEWSS: # of linearly dependent vectors =            0
   GDM::PrEWSS: Max dev from orthonormality =   1.848105002366651E-013
   GDM::BFGS:   lowest Hinv e-value    0.173375074047022     
   GDM::BFGS:   highest Hinv e-value    5.38893481297520     
   GDM::      : max scaling in EWCs is          2.82842712474619     
   GDM::      : max rotation in step is       -0.114081978440313     
   GDM::        grad.step =  -1.421296800628647E-002
   ------- Leaving GDM -- hopefully with a step in the right direction! --------
 
   28    -641.6006285611      4.83E-02  Gap = 0.00 eV  Descent step
 
   ------------------- Entering Geometric Direct Minimization ------------------
   GDM::trust : actual energy change is       -2.443311278966576E-003
   GDM::trust : predicted energy change was   -2.107782067619864E-002
   GDM::trust : updated trust radius is        0.330000000000000     
   GDM:         diagonal hessian shift is      0.000000000000000E+000
   GDM::PreWSS: input subspace size is                 19
   GDM::PreWSS: working subspace size set to           18
   GDM::PrEWSS: # of linearly dependent vectors =            0
   GDM::PrEWSS: Max dev from orthonormality =   3.432948370019062E-013
   GDM::BFGS:   lowest Hinv e-value    0.195274619472834     
   GDM::BFGS:   highest Hinv e-value    4.61511978541942     
   GDM::      : max scaling in EWCs is          2.82842712474619     
   GDM::      : max rotation in step is       -0.287516284971677     
   GDM::        grad.step =  -2.144608715008433E-002
   ------- Leaving GDM -- hopefully with a step in the right direction! --------
 
   29    -641.6030718724      9.44E-02  Gap = 0.00 eV  Normal BFGS step
 
   ------------------- Entering Geometric Direct Minimization ------------------
   GDM::trust : actual energy change is       -5.963944703353263E-003
   GDM::trust : predicted energy change was   -3.216913072512650E-002
   GDM::trust : updated trust radius is        0.330000000000000     
   GDM:         diagonal hessian shift is      0.000000000000000E+000
   GDM::PreWSS: input subspace size is                 19
   GDM::PreWSS: working subspace size set to           18
   GDM::PrEWSS: # of linearly dependent vectors =            0
   GDM::PrEWSS: Max dev from orthonormality =   2.582691005503790E-013
   GDM::BFGS:   lowest Hinv e-value    0.198087205054477     
   GDM::BFGS:   highest Hinv e-value    5.07585521438602     
   GDM::      : max scaling in EWCs is          2.82842712474619     
   GDM::      : max rotation in step is       -0.175867869797909     
   GDM::        grad.step =  -1.951261772115085E-002
   ------- Leaving GDM -- hopefully with a step in the right direction! --------
 
   30    -641.6090358171      4.92E-02  Gap = 0.00 eV  Normal BFGS step
 
   ------------------- Entering Geometric Direct Minimization ------------------
   GDM::trust : actual energy change is        8.971183805215333E-004
   GDM::trust : predicted energy change was   -2.926892658172628E-002
   GDM::trust : updated trust radius is        0.108900000000000     
   GDM::search:  On step            1 .  The current bracket is:
       left   : x =  0.0000E+00, e =      -641.6090358171, g = -0.5627E-01
       current: x =  0.3468E+00, e =      -641.6081386987, g =  0.5831E-01
       right  : x =  0.1000E+04, e =      1000.0000000000, g =  0.1000E+04
       next   : x =  0.1658E+00
   GDM::      : max rotation in step is       -8.406876246965610E-002
   ------- Leaving GDM -- hopefully with a step in the right direction! --------
 
   31    -641.6081386987      1.95E-02  Gap = 0.00 eV  Line search: overstep
 
   ------------------- Entering Geometric Direct Minimization ------------------
   GDM::trust : actual energy change is       -9.565219912587963E-003
   GDM::trust : predicted energy change was   -2.926892658172628E-002
   GDM::trust : updated trust radius is        0.108900000000000     
   GDM:         diagonal hessian shift is      0.000000000000000E+000
   GDM::PreWSS: input subspace size is                 19
   GDM::PreWSS: working subspace size set to           18
   GDM::PrEWSS: # of linearly dependent vectors =            0
   GDM::PrEWSS: Max dev from orthonormality =   3.304717610674857E-013
   GDM::BFGS:   lowest Hinv e-value    0.208264712105946     
   GDM::BFGS:   highest Hinv e-value    3.31011504717746     
   GDM::trust : dogleg step length is          0.108900000000000     
   GDM::      : max scaling in EWCs is          2.82842712474619     
   GDM::      : max rotation in step is       -0.106768915463802     
   GDM::        grad.step =  -8.094709171419025E-003
   ------- Leaving GDM -- hopefully with a step in the right direction! --------
 
   32    -641.6186010370      2.70E-02  Gap = 0.00 eV  Dog-leg BFGS step
 
   ------------------- Entering Geometric Direct Minimization ------------------
   GDM::trust : actual energy change is       -6.181235077065139E-004
   GDM::trust : predicted energy change was   -1.252802908960894E-002
   GDM::trust : updated trust radius is        0.108900000000000     
   GDM:         diagonal hessian shift is      0.000000000000000E+000
   GDM::PreWSS: input subspace size is                 19
   GDM::PreWSS: working subspace size set to           18
   GDM::PrEWSS: # of linearly dependent vectors =            0
   GDM::PrEWSS: Max dev from orthonormality =   3.627653732962699E-013
   GDM::BFGS:   lowest Hinv e-value    0.223407036057786     
   GDM::BFGS:   highest Hinv e-value    2.71742031530851     
   GDM::      : max scaling in EWCs is          2.82413326822633     
   GDM::      : max rotation in step is        3.090655648829334E-002
   GDM::        grad.step =  -5.134320936683068E-003
   ------- Leaving GDM -- hopefully with a step in the right direction! --------
 
   33    -641.6192191605      2.35E-02  Gap = 0.00 eV  Normal BFGS step
 
   ------------------- Entering Geometric Direct Minimization ------------------
   GDM::trust : actual energy change is       -4.055846396568086E-003
   GDM::trust : predicted energy change was   -7.701481405024602E-003
   GDM::trust : updated trust radius is        0.330000000000000     
   GDM:         diagonal hessian shift is      0.000000000000000E+000
   GDM::PreWSS: input subspace size is                 19
   GDM::PreWSS: working subspace size set to           18
   GDM::PrEWSS: # of linearly dependent vectors =            0
   GDM::PrEWSS: Max dev from orthonormality =   1.439402416703039E-012
   GDM::BFGS:   lowest Hinv e-value    0.197131199451456     
   GDM::BFGS:   highest Hinv e-value    2.61943798721366     
   GDM::      : max scaling in EWCs is          2.82842712474619     
   GDM::      : max rotation in step is        4.525318829177348E-002
   GDM::        grad.step =  -1.512686564605666E-003
   ------- Leaving GDM -- hopefully with a step in the right direction! --------
 
   34    -641.6232750069      9.83E-03  Gap = 0.00 eV  Normal BFGS step
 
   ------------------- Entering Geometric Direct Minimization ------------------
   GDM::trust : actual energy change is       -2.073052463629210E-004
   GDM::trust : predicted energy change was   -2.269029846908499E-003
   GDM::trust : updated trust radius is        0.330000000000000     
   GDM:         diagonal hessian shift is      0.000000000000000E+000
   GDM::PreWSS: input subspace size is                 19
   GDM::PreWSS: working subspace size set to           18
   GDM::PrEWSS: # of linearly dependent vectors =            0
   GDM::PrEWSS: Max dev from orthonormality =   1.740865264443503E-012
   GDM::BFGS:   lowest Hinv e-value    0.207679125623123     
   GDM::BFGS:   highest Hinv e-value    2.64713825982192     
   GDM::      : max scaling in EWCs is          2.82842712474619     
   GDM::      : max rotation in step is       -1.719580378933075E-002
   GDM::        grad.step =  -8.997421058931467E-004
   ------- Leaving GDM -- hopefully with a step in the right direction! --------
 
   35    -641.6234823122      1.81E-02  Gap = 0.00 eV  Normal BFGS step
 
   ------------------- Entering Geometric Direct Minimization ------------------
   GDM::trust : actual energy change is       -8.081384190745666E-004
   GDM::trust : predicted energy change was   -1.349613158839720E-003
   GDM::trust : updated trust radius is        0.330000000000000     
   GDM:         diagonal hessian shift is      0.000000000000000E+000
   GDM::PreWSS: input subspace size is                 19
   GDM::PreWSS: working subspace size set to           18
   GDM::PrEWSS: # of linearly dependent vectors =            0
   GDM::PrEWSS: Max dev from orthonormality =   2.315748287573527E-012
   GDM::BFGS:   lowest Hinv e-value    0.185649319325842     
   GDM::BFGS:   highest Hinv e-value    2.64568653952508     
   GDM::      : max scaling in EWCs is          2.82842712474619     
   GDM::      : max rotation in step is       -7.184671724027470E-003
   GDM::        grad.step =  -1.892384452444888E-004
   ------- Leaving GDM -- hopefully with a step in the right direction! --------
 
   36    -641.6242904506      4.22E-03  Gap = 0.00 eV  Normal BFGS step
 
   ------------------- Entering Geometric Direct Minimization ------------------
   GDM::trust : actual energy change is       -1.627137771720299E-005
   GDM::trust : predicted energy change was   -2.838576678667333E-004
   GDM::trust : updated trust radius is        0.330000000000000     
   GDM:         diagonal hessian shift is      0.000000000000000E+000
   GDM::PreWSS: input subspace size is                 19
   GDM::PreWSS: working subspace size set to           18
   GDM::PrEWSS: # of linearly dependent vectors =            0
   GDM::PrEWSS: Max dev from orthonormality =   1.119840331575972E-012
   GDM::BFGS:   lowest Hinv e-value    0.174272624230587     
   GDM::BFGS:   highest Hinv e-value    2.64996911920066     
   GDM::      : max scaling in EWCs is          2.82842712474619     
   GDM::      : max rotation in step is       -6.137801709325433E-003
   GDM::        grad.step =  -1.277779676250481E-004
   ------- Leaving GDM -- hopefully with a step in the right direction! --------
 
   37    -641.6243067220      5.57E-03  Gap = 0.00 eV  Normal BFGS step
 
   ------------------- Entering Geometric Direct Minimization ------------------
   GDM::trust : actual energy change is       -1.123906542943587E-004
   GDM::trust : predicted energy change was   -1.916669514375722E-004
   GDM::trust : updated trust radius is        0.330000000000000     
   GDM:         diagonal hessian shift is      0.000000000000000E+000
   GDM::PreWSS: input subspace size is                 19
   GDM::PreWSS: working subspace size set to           18
   GDM::PrEWSS: # of linearly dependent vectors =            0
   GDM::PrEWSS: Max dev from orthonormality =   2.414450583909655E-012
   GDM::BFGS:   lowest Hinv e-value    0.185983263752588     
   GDM::BFGS:   highest Hinv e-value    2.73045563698997     
   GDM::      : max scaling in EWCs is          2.82842712474619     
   GDM::      : max rotation in step is       -1.072127156004188E-002
   GDM::        grad.step =  -4.338494533511504E-005
   ------- Leaving GDM -- hopefully with a step in the right direction! --------
 
   38    -641.6244191126      1.63E-03  Gap = 0.00 eV  Normal BFGS step
 
   ------------------- Entering Geometric Direct Minimization ------------------
   GDM::trust : actual energy change is        5.273812234918296E-006
   GDM::trust : predicted energy change was   -6.507741800267257E-005
   GDM::trust : updated trust radius is        0.108900000000000     
   GDM::search:  On step            1 .  The current bracket is:
       left   : x =  0.0000E+00, e =      -641.6244191126, g = -0.2731E-02
       current: x =  0.1588E-01, e =      -641.6244138388, g =  0.3085E-02
       right  : x =  0.1000E+04, e =      1000.0000000000, g =  0.1000E+04
       next   : x =  0.7081E-02
   GDM::      : max rotation in step is       -4.779630674764696E-003
   ------- Leaving GDM -- hopefully with a step in the right direction! --------
 
   39    -641.6244138388      4.04E-04  Gap = 0.00 eV  Line search: overstep
 
   ------------------- Entering Geometric Direct Minimization ------------------
   GDM::trust : actual energy change is       -2.046651695764012E-005
   GDM::trust : predicted energy change was   -6.507741800267257E-005
   GDM::trust : updated trust radius is        0.108900000000000     
   GDM:         diagonal hessian shift is      0.000000000000000E+000
   GDM::PreWSS: input subspace size is                 19
   GDM::PreWSS: working subspace size set to           18
   GDM::PrEWSS: # of linearly dependent vectors =            0
   GDM::PrEWSS: Max dev from orthonormality =   2.368792662021946E-012
   GDM::BFGS:   lowest Hinv e-value    0.176135933543952     
   GDM::BFGS:   highest Hinv e-value    2.90530690263682     
   GDM::      : max scaling in EWCs is          2.82842712474619     
   GDM::      : max rotation in step is       -5.950778281254086E-003
   GDM::        grad.step =  -9.140006148453946E-006
   ------- Leaving GDM -- hopefully with a step in the right direction! --------
 
   40    -641.6244395791      7.77E-04  Gap = 0.00 eV  Normal BFGS step
 
   ------------------- Entering Geometric Direct Minimization ------------------
   GDM::trust : actual energy change is       -7.629418519172759E-006
   GDM::trust : predicted energy change was   -1.371000922268092E-005
   GDM::trust : updated trust radius is        0.330000000000000     
   GDM:         diagonal hessian shift is      0.000000000000000E+000
   GDM::PreWSS: input subspace size is                 19
   GDM::PreWSS: working subspace size set to           18
   GDM::PrEWSS: # of linearly dependent vectors =            0
   GDM::PrEWSS: Max dev from orthonormality =   4.224391669804817E-012
   GDM::BFGS:   lowest Hinv e-value    0.177877344514242     
   GDM::BFGS:   highest Hinv e-value    3.02449906026057     
   GDM::      : max scaling in EWCs is          2.82842712474619     
   GDM::      : max rotation in step is       -1.603331578836674E-003
   GDM::        grad.step =  -3.080746646849206E-006
   ------- Leaving GDM -- hopefully with a step in the right direction! --------
 
   41    -641.6244472086      4.99E-04  Gap = 0.00 eV  Normal BFGS step
 
   ------------------- Entering Geometric Direct Minimization ------------------
   GDM::trust : actual energy change is       -2.580199293333862E-006
   GDM::trust : predicted energy change was   -4.621119970273808E-006
   GDM::trust : updated trust radius is        0.330000000000000     
   GDM:         diagonal hessian shift is      0.000000000000000E+000
   GDM::PreWSS: input subspace size is                 19
   GDM::PreWSS: working subspace size set to           18
   GDM::PrEWSS: # of linearly dependent vectors =            0
   GDM::PrEWSS: Max dev from orthonormality =   3.759936806346786E-012
   GDM::BFGS:   lowest Hinv e-value    0.172090004988338     
   GDM::BFGS:   highest Hinv e-value    3.00211367498620     
   GDM::      : max scaling in EWCs is          2.82842712474619     
   GDM::      : max rotation in step is       -3.080685647570679E-004
   GDM::        grad.step =  -4.804087571358998E-007
   ------- Leaving GDM -- hopefully with a step in the right direction! --------
 
   42    -641.6244497887      1.72E-04  Gap = 0.00 eV  Normal BFGS step
 
   ------------------- Entering Geometric Direct Minimization ------------------
   GDM::trust : actual energy change is       -2.836036401276942E-007
   GDM::trust : predicted energy change was   -7.206131357038497E-007
   GDM::trust : updated trust radius is        0.330000000000000     
   GDM:         diagonal hessian shift is      0.000000000000000E+000
   GDM::PreWSS: input subspace size is                 19
   GDM::PreWSS: working subspace size set to           18
   GDM::PrEWSS: # of linearly dependent vectors =            0
   GDM::PrEWSS: Max dev from orthonormality =   3.361401434975875E-012
   GDM::BFGS:   lowest Hinv e-value    0.181564997119920     
   GDM::BFGS:   highest Hinv e-value    3.01262223974827     
   GDM::      : max scaling in EWCs is          2.82842712474619     
   GDM::      : max rotation in step is        2.853590784904247E-004
   GDM::        grad.step =  -1.395147422994091E-007
   ------- Leaving GDM -- hopefully with a step in the right direction! --------
 
   43    -641.6244500724      1.30E-04  Gap = 0.00 eV  Normal BFGS step
 
   ------------------- Entering Geometric Direct Minimization ------------------
   GDM::trust : actual energy change is       -1.193574235003325E-007
   GDM::trust : predicted energy change was   -2.092721134491136E-007
   GDM::trust : updated trust radius is        0.330000000000000     
   GDM:         diagonal hessian shift is      0.000000000000000E+000
   GDM::PreWSS: input subspace size is                 19
   GDM::PreWSS: working subspace size set to           18
   GDM::PrEWSS: # of linearly dependent vectors =            0
   GDM::PrEWSS: Max dev from orthonormality =   2.050359881877739E-012
   GDM::BFGS:   lowest Hinv e-value    0.173721362797475     
   GDM::BFGS:   highest Hinv e-value    3.02675924264383     
   GDM::      : max scaling in EWCs is          2.82842712474619     
   GDM::      : max rotation in step is       -1.047367463456441E-004
   GDM::        grad.step =  -1.998356837062225E-008
   ------- Leaving GDM -- hopefully with a step in the right direction! --------
 
   44    -641.6244501917      4.14E-05  Gap = 0.00 eV  Normal BFGS step
 
   ------------------- Entering Geometric Direct Minimization ------------------
   GDM::trust : actual energy change is       -1.629268808756024E-008
   GDM::trust : predicted energy change was   -2.997535255593337E-008
   GDM::trust : updated trust radius is        0.330000000000000     
   GDM:         diagonal hessian shift is      0.000000000000000E+000
   GDM::PreWSS: input subspace size is                 19
   GDM::PreWSS: working subspace size set to           18
   GDM::PrEWSS: # of linearly dependent vectors =            0
   GDM::PrEWSS: Max dev from orthonormality =   6.615355485628527E-011
   GDM::BFGS:   lowest Hinv e-value    0.178914810981610     
   GDM::BFGS:   highest Hinv e-value    3.01184831398094     
   GDM::      : max scaling in EWCs is          2.82842712474619     
   GDM::      : max rotation in step is        8.271851682017973E-005
   GDM::        grad.step =  -5.623652447981473E-009
   ------- Leaving GDM -- hopefully with a step in the right direction! --------
 
   45    -641.6244502080      3.03E-05  Gap = 0.00 eV  Normal BFGS step
 
   ------------------- Entering Geometric Direct Minimization ------------------
   GDM::trust : actual energy change is       -6.075424607843161E-009
   GDM::trust : predicted energy change was   -8.435478671972207E-009
   GDM::trust : updated trust radius is        0.330000000000000     
   GDM:         diagonal hessian shift is      0.000000000000000E+000
   GDM::PreWSS: input subspace size is                 19
   GDM::PreWSS: working subspace size set to           18
   GDM::PrEWSS: # of linearly dependent vectors =            0
   GDM::PrEWSS: Max dev from orthonormality =   2.174478826166837E-011
   GDM::BFGS:   lowest Hinv e-value    0.192432566008496     
   GDM::BFGS:   highest Hinv e-value    3.05601335031144     
   GDM::      : max scaling in EWCs is          2.82842712474619     
   GDM::      : max rotation in step is       -4.945708022974923E-005
   GDM::        grad.step =  -1.587343990324811E-009
   ------- Leaving GDM -- hopefully with a step in the right direction! --------
 
   46    -641.6244502141      1.50E-05  Gap = 0.00 eV  Normal BFGS step
 
   ------------------- Entering Geometric Direct Minimization ------------------
   GDM::trust : actual energy change is       -1.433591023669578E-009
   GDM::trust : predicted energy change was   -2.381015985487216E-009
   GDM::trust : updated trust radius is        0.330000000000000     
   GDM:         diagonal hessian shift is      0.000000000000000E+000
   GDM::PreWSS: input subspace size is                 19
   GDM::PreWSS: working subspace size set to           18
   GDM::PrEWSS: # of linearly dependent vectors =            0
   GDM::PrEWSS: Max dev from orthonormality =   4.152476973384722E-012
   GDM::BFGS:   lowest Hinv e-value    0.196873597543380     
   GDM::BFGS:   highest Hinv e-value    3.10488101846279     
   GDM::      : max scaling in EWCs is          2.82842712474619     
   GDM::      : max rotation in step is       -1.821184788588656E-005
   GDM::        grad.step =  -2.950641829262306E-010
   ------- Leaving GDM -- hopefully with a step in the right direction! --------
 
   47    -641.6244502155      4.48E-06  Gap = 0.00 eV  Normal BFGS step
 
   ------------------- Entering Geometric Direct Minimization ------------------
   GDM::trust : actual energy change is       -2.813749233609997E-010
   GDM::trust : predicted energy change was   -4.425962743893461E-010
   GDM::trust : updated trust radius is        0.330000000000000     
   GDM:         diagonal hessian shift is      0.000000000000000E+000
   GDM::PreWSS: input subspace size is                 19
   GDM::PreWSS: working subspace size set to           18
   GDM::PrEWSS: # of linearly dependent vectors =            0
   GDM::PrEWSS: Max dev from orthonormality =   3.480363219843241E-011
   GDM::BFGS:   lowest Hinv e-value    0.195843291394454     
   GDM::BFGS:   highest Hinv e-value    3.18581360311194     
   GDM::      : max scaling in EWCs is          2.82842712474619     
   GDM::      : max rotation in step is       -4.110952147244043E-006
   GDM::        grad.step =  -3.199458647989526E-011
   ------- Leaving GDM -- hopefully with a step in the right direction! --------
 
   48    -641.6244502158      1.51E-06  Gap = 0.00 eV  Normal BFGS step
 
   ------------------- Entering Geometric Direct Minimization ------------------
   GDM::trust : actual energy change is       -3.103650669800118E-011
   GDM::trust : predicted energy change was   -4.799187971984290E-011
   GDM::trust : updated trust radius is        0.330000000000000     
   GDM:         diagonal hessian shift is      0.000000000000000E+000
   GDM::PreWSS: input subspace size is                 19
   GDM::PreWSS: working subspace size set to           18
   GDM::PrEWSS: # of linearly dependent vectors =            0
   GDM::PrEWSS: Max dev from orthonormality =   8.147191254970210E-012
   GDM::BFGS:   lowest Hinv e-value    0.196764882297192     
   GDM::BFGS:   highest Hinv e-value    3.24847253288070     
   GDM::      : max scaling in EWCs is          2.82842712474619     
   GDM::      : max rotation in step is       -2.761553602694235E-006
   GDM::        grad.step =  -4.243733284550899E-012
   ------- Leaving GDM -- hopefully with a step in the right direction! --------
 
   49    -641.6244502158      5.78E-07  Gap = 0.00 eV  Normal BFGS step
 
   ------------------- Entering Geometric Direct Minimization ------------------
   GDM::trust : actual energy change is       -1.932676241267473E-012
   GDM::trust : predicted energy change was   -6.365599926826351E-012
   GDM::trust : updated trust radius is        0.330000000000000     
   GDM:         diagonal hessian shift is      0.000000000000000E+000
   GDM::PreWSS: input subspace size is                 19
   GDM::PreWSS: working subspace size set to           18
   GDM::PrEWSS: # of linearly dependent vectors =            0
   GDM::PrEWSS: Max dev from orthonormality =   5.528487390105141E-012
   GDM::BFGS:   lowest Hinv e-value    0.199640911667738     
   GDM::BFGS:   highest Hinv e-value    3.20231210008374     
   GDM::      : max scaling in EWCs is          2.82842712474619     
   GDM::      : max rotation in step is       -5.603941329148489E-007
   GDM::        grad.step =  -1.168974607754631E-012
   ------- Leaving GDM -- hopefully with a step in the right direction! --------
 
   50    -641.6244502158      3.29E-07  Gap = 0.00 eV  Normal BFGS step
 
   ------------------- Entering Geometric Direct Minimization ------------------
   GDM::trust : actual energy change is       -9.094947017729282E-013
   GDM::trust : predicted energy change was   -1.753461911631946E-012
   GDM::trust : updated trust radius is        0.330000000000000     
   GDM:         diagonal hessian shift is      0.000000000000000E+000
   GDM::PreWSS: input subspace size is                 19
   GDM::PreWSS: working subspace size set to           15
   GDM::PrEWSS: # of linearly dependent vectors =            0
   GDM::PrEWSS: Max dev from orthonormality =   9.117706589734098E-013
   GDM::BFGS:   lowest Hinv e-value    0.227601373047353     
   GDM::BFGS:   highest Hinv e-value    3.29654822693424     
   GDM::      : max scaling in EWCs is          2.82842712474619     
   GDM::      : max rotation in step is        2.781048772573984E-007
   GDM::        grad.step =  -1.269723261511717E-013
   ------- Leaving GDM -- hopefully with a step in the right direction! --------
 
   51    -641.6244502158      1.15E-07  Gap = 0.00 eV  Normal BFGS step
 
   ------------------- Entering Geometric Direct Minimization ------------------
   GDM::trust : actual energy change is       -4.547473508864641E-013
   GDM::trust : predicted energy change was   -1.904584892267575E-013
   GDM::trust : updated trust radius is        0.330000000000000     
   GDM:         diagonal hessian shift is      0.000000000000000E+000
   GDM::PreWSS: input subspace size is                 16
   GDM::PreWSS: working subspace size set to           14
   GDM::PrEWSS: # of linearly dependent vectors =            0
   GDM::PrEWSS: Max dev from orthonormality =   2.683651911805640E-013
   GDM::BFGS:   lowest Hinv e-value    0.246378353310357     
   GDM::BFGS:   highest Hinv e-value    4.07686945296463     
   GDM::      : max scaling in EWCs is          2.82842712474619     
   GDM::      : max rotation in step is        6.602940315312864E-008
   GDM::        grad.step =  -2.436974323850694E-014
   ------- Leaving GDM -- hopefully with a step in the right direction! --------
 
   52    -641.6244502158      3.58E-08  Gap = 0.00 eV  Normal BFGS step
 
   ------------------- Entering Geometric Direct Minimization ------------------
   GDM::trust : actual energy change is       -9.094947017729282E-013
   GDM::trust : predicted energy change was   -3.655461485776042E-014
   GDM::trust : updated trust radius is        0.330000000000000     
   GDM:         diagonal hessian shift is      0.000000000000000E+000
   GDM::PreWSS: input subspace size is                 15
   GDM::PreWSS: working subspace size set to           15
   GDM::PrEWSS: # of linearly dependent vectors =            1
   GDM::PrEWSS: Max dev from orthonormality =   3.555766792118220E-013
   GDM::BFGS:   lowest Hinv e-value    0.242880272099398     
   GDM::BFGS:   highest Hinv e-value    4.08218883883383     
   GDM::      : max scaling in EWCs is          2.82842712474619     
   GDM::      : max rotation in step is       -5.021851524697392E-008
   GDM::        grad.step =  -8.062377500606171E-015
   ------- Leaving GDM -- hopefully with a step in the right direction! --------
 
   53    -641.6244502158      2.25E-08  Gap = -20.90 eV  Normal BFGS step
 
   ------------------- Entering Geometric Direct Minimization ------------------
   GDM::trust : actual energy change is        9.094947017729282E-013
   GDM::trust : predicted energy change was   -1.209356625090925E-014
   GDM::trust : updated trust radius is        0.108900000000000     
   GDM::WARNING energy changes are now smaller than effective accuracy.
   GDM::        calculation will continue, but THRESH should be increased
   GDM::        or SCF_CONVERGENCE decreased.
   GDM::        effective_thresh =   2.800000000000000E-010
   GDM:         diagonal hessian shift is      0.000000000000000E+000
   GDM::PreWSS: input subspace size is                 16
   GDM::PreWSS: working subspace size set to           16
   GDM::PrEWSS: # of linearly dependent vectors =            2
   GDM::PrEWSS: Max dev from orthonormality =   6.174089017818574E-013
   GDM::BFGS:   lowest Hinv e-value    0.227019222811592     
   GDM::BFGS:   highest Hinv e-value    4.07997036502256     
   GDM::      : max scaling in EWCs is          2.82842712474619     
   GDM::      : max rotation in step is        4.478339567541272E-008
   GDM::        grad.step =  -8.310089778356018E-015
   ------- Leaving GDM -- hopefully with a step in the right direction! --------
 
   54    -641.6244502158      5.19E-08  Gap = 183.79 eV  Normal BFGS step
 
   ------------------- Entering Geometric Direct Minimization ------------------
   GDM::trust : actual energy change is        7.958078640513122E-013
   GDM::trust : predicted energy change was   -1.246513466753403E-014
   GDM::trust : updated trust radius is        0.108900000000000     
   GDM::WARNING energy changes are now smaller than effective accuracy.
   GDM::        calculation will continue, but THRESH should be increased
   GDM::        or SCF_CONVERGENCE decreased.
   GDM::        effective_thresh =   2.800000000000000E-010
   GDM:         diagonal hessian shift is      0.000000000000000E+000
   GDM::PreWSS: input subspace size is                 17
   GDM::PreWSS: working subspace size set to           15
   GDM::PrEWSS: # of linearly dependent vectors =            0
   GDM::PrEWSS: Max dev from orthonormality =   5.701006333680425E-011
   GDM::BFGS:   lowest Hinv e-value    0.237685753752900     
   GDM::BFGS:   highest Hinv e-value    2.94188436382586     
   GDM::      : max scaling in EWCs is          2.82842712474619     
   GDM::      : max rotation in step is        2.038125603643692E-008
   GDM::        grad.step =  -4.998385070264976E-016
   ------- Leaving GDM -- hopefully with a step in the right direction! --------
 
   55    -641.6244502158      8.02E-09 Convergence criterion met
 ---------------------------------------
 One-Electron    Energy = -1433.5508354619
 Total Coulomb   Energy =   586.2196012466
 Alpha Exchange  Energy =    -5.2214667727
 Beta  Exchange  Energy =    -5.2214667727
 DFT   Exchange  Energy =   -41.7773827805
 DFT Correlation Energy =    -2.5630411683
 Nuclear Repu.   Energy =   260.4901414937
 Nuclear Attr.   Energy = -2028.8511783818
 Kinetic         Energy =   595.3003429199
 SCF time:  CPU 202.16 s  wall 18.02 s
 SCF   energy in the final basis set = -641.6244502158
 Total energy in the final basis set = -641.6244502158
 
 --------------------------------------------------------------
 
                    Orbital Energies (a.u.)
 --------------------------------------------------------------
 
 Alpha MOs
 -- Occupied --
-88.824 -19.167 -19.155  -7.907  -5.867  -5.866  -5.865  -2.050
 -2.004  -1.321  -1.252  -1.244  -1.221  -1.208  -1.159  -1.026
 -0.767  -0.661  -0.412  -0.393  -0.388  -0.321  -0.294  -0.289
 -0.257  -0.221  -0.213  -0.194
 -- Virtual --
 -0.136  -0.124  -0.082  -0.072  -0.062  -0.038  -0.029  -0.018
  0.008   0.023   0.034   0.037   0.040   0.047   0.051   0.061
  0.075   0.090   0.092   0.102   0.109   0.125   0.137   0.158
  0.185   0.199   0.203   0.210   0.218   0.228   0.232   0.247
  0.262   0.275   0.279   0.289   0.297   0.305   0.324   0.350
  0.367   0.389   0.414   0.444   0.482   0.548   0.570   0.607
  0.707   0.833   0.836   0.875   0.919   0.968   1.182   1.200
  1.217   1.236   1.280   1.301   1.561   1.562   1.723   1.782
  1.795   1.845   1.942   1.970   2.095   2.431   2.442   3.166
 15.071  16.314
 --------------------------------------------------------------
 
          Ground-State Mulliken Net Atomic Charges

     Atom                 Charge (a.u.)
  ----------------------------------------
      1 Zr                    0.355773
      2 Zr                    0.844668
      3 O                    -0.413326
      4 S                    -0.409039
      5 O                    -0.378076
  ----------------------------------------
  Sum of atomic charges =     0.000000

 -----------------------------------------------------------------
                    Cartesian Multipole Moments
 -----------------------------------------------------------------
    Charge (ESU x 10^10)
                 0.0000
    Dipole Moment (Debye)
         X      -6.1910      Y       3.9132      Z      -2.3597
       Tot       7.6948
    Quadrupole Moments (Debye-Ang)
        XX     -73.1065     XY     -11.3962     YY     -71.2405
        XZ      -9.4411     YZ       3.1418     ZZ     -65.3995
    Octopole Moments (Debye-Ang^2)
       XXX     -47.9884    XXY      19.5801    XYY      -6.0965
       YYY      35.6792    XXZ     -11.9523    XYZ      -2.3698
       YYZ      -0.5682    XZZ      -3.9978    YZZ      10.0361
       ZZZ      -7.2943
    Hexadecapole Moments (Debye-Ang^3)
      XXXX    -842.2869   XXXY     -77.9793   XXYY    -203.4960
      XYYY     -63.9609   YYYY    -405.7695   XXXZ     -59.3131
      XXYZ       8.9886   XYYZ     -13.1229   YYYZ      15.5202
      XXZZ    -160.0037   XYZZ     -17.9199   YYZZ     -96.2184
      XZZZ     -35.0078   YZZZ      17.7965   ZZZZ    -165.3438
 -----------------------------------------------------------------
Archival summary:
1\1\hpc3935\SP\ProcedureUnspecified\BasisUnspecified\r212(+,1)\liqiuy\FriJan1719:18:222020FriJan1719:18:222020\0\\#,ProcedureUnspecified,BasisUnspecified,\\56,1\Zr\O,1,1.91868\O,2,1.41747,1,73.5082\Zr,1,2.18684,2,116.187,3,-114.955,0\S,4,2.22335,1,68.1882,2,132.124,0\\\@

 Total job time:  18.94s(wall), 207.73s(cpu) 
 Fri Jan 17 19:18:22 2020

        *************************************************************
        *                                                           *
        *  Thank you very much for using Q-Chem.  Have a nice day.  *
        *                                                           *
        *************************************************************


0 sent ACK to 0 
now end server 0 ... 
cleanup process ... done

Running Job 2 of 2 ZrOx.in
qchem ZrOx.in_11058.1 /tmp/5732598.priya/ZrOx.save/ 1
/usr/usc/qchem/4.4/bin/mpi/mpirun_qchem -machinefile /usr/usc/qchem/4.4/bin/mpi/machines -np 1 /usr/usc/qchem/4.4/exe/qcprog.exe ZrOx.in_11058.1 /tmp/5732598.priya/ZrOx.save/

Process 0 of 1 is on hpc3935.hpcc.usc.edu - thread support 0
initial socket setup ...start
initial socket setup ...done 
now start server 0 ... 
Check license passed

                  Welcome to Q-Chem
     A Quantum Leap Into The Future Of Chemistry


 Q-Chem 4.4, Q-Chem, Inc., Pleasanton, CA (2016)

 Y. Shao,  Z. Gan,  E. Epifanovsky,  A. T. B. Gilbert,  M. Wormit,  
 J. Kussmann,  A. W. Lange,  A. Behn,  J. Deng,  X. Feng,  D. Ghosh,  
 M. Goldey,  P. R. Horn,  L. D. Jacobson,  I. Kaliman,  F.Rob,  
 R. Z. Khaliullin,  T. Kus,  A. Landau,  J. Liu,  E. I. Proynov,  Y. M. Rhee,  
 R. M. Richard,  M. A. Rohrdanz,  R. P. Steele,  E. J. Sundstrom,  
 H. L. Woodcock III,  P. M. Zimmerman,  D. Zuev,  B. Albrecht,  E. Alguire,  
 B. Austin,  S. A. Baeppler,  G. J. O. Beran,  Y. A. Bernard,  E. Berquist,  
 K. Brandhorst,  K. B. Bravaya,  S. T. Brown,  D. Casanova,  C.-M. Chang,  
 Y. Chen,  S. H. Chien,  K. D. Closser,  M. P. Coons,  D. L. Crittenden,  
 S. Dasgupta,  M. Diedenhofen,  R. A. DiStasio Jr.,  H. Do,  A. D. Dutoi,  
 R. G. Edgar,  P.-T. Fang,  S. Fatehi,  Q. Feng,  L. Fusti-Molnar,  
 A. Ghysels,  A. Golubeva-Zadorozhnaya,  J. Gomes,  A. Gunina,  
 M. W. D. Hanson-Heine,  P. H. P. Harbach,  A. W. Hauser,  E. G. Hohenstein,  
 Z. C. Holden,  K. Hui,  T.-C. Jagau,  H. Ji,  B. Kaduk,  K. Khistyaev,  
 Jaehoon Kim,  Jihan Kim,  R. A. King,  P. Klunzinger,  D. Kosenkov,  
 T. Kowalczyk,  C. M. Krauter,  A. Kunitsa,  K. U. Lao,  A. Laurent,  
 K. V. Lawler,  D. Lefrancois,  S. Lehtola,  S. V. Levchenko,  C. Y. Lin,  
 Y.-S. Lin,  F. Liu,  E. Livshits,  R. C. Lochan,  A. Luenser,  P. Manohar,  
 S. F. Manzer,  S.-P. Mao,  Y. Mao,  N. Mardirossian,  A. V. Marenich,  
 L. A. Martinez-Martinez,  S. A. Maurer,  N. J. Mayhall,  J.-M. Mewes,  
 A. F. Morrison,  K. Nanda,  C. M. Oana,  R. Olivares-Amaya,  D. P. O'Neill,  
 J. A. Parkhill,  T. M. Perrine,  R. Peverati,  P. A. Pieniazek,  F. Plasser,  
 A. Prociuk,  D. R. Rehn,  E. Rosta,  N. J. Russ,  N. Sergueev,  
 S. M. Sharada,  S. Sharma,  D. W. Small,  A. Sodt,  T. Stauch,  T. Stein,  
 D. Stuck,  Y.-C. Su,  A. J. W. Thom,  T. Tsuchimochi,  L. Vogt,  O. Vydrov,  
 T. Wang,  M. A. Watson,  J. Wenzel,  A. White,  C. F. Williams,  
 V. Vanovschi,  S. Yeganeh,  S. R. Yost,  Z.-Q. You,  I. Y. Zhang,  X. Zhang,  
 Y. Zhao,  B. R. Brooks,  G. K. L. Chan,  D. M. Chipman,  C. J. Cramer,  
 W. A. Goddard III,  M. S. Gordon,  W. J. Hehre,  A. Klamt,  
 H. F. Schaefer III,  M. W. Schmidt,  C. D. Sherrill,  D. G. Truhlar,  
 A. Warshel,  X. Xu,  A. Aspuru-Guzik,  R. Baer,  A. T. Bell,  N. A. Besley,  
 J.-D. Chai,  A. Dreuw,  B. D. Dunietz,  T. R. Furlani,  S. R. Gwaltney,  
 C.-P. Hsu,  Y. Jung,  J. Kong,  D. S. Lambrecht,  W. Liang,  C. Ochsenfeld,  
 V. A. Rassolov,  L. V. Slipchenko,  J. E. Subotnik,  T. Van Voorhis,  
 J. M. Herbert,  A. I. Krylov,  P. M. W. Gill,  M. Head-Gordon

 Contributors to earlier versions of Q-Chem not listed above: 
 R. D. Adamson,  J. Baker,  E. F. C. Byrd,  A. K. Chakraborty,  C.-L. Cheng,  
 H. Dachsel,  R. J. Doerksen,  G. Hawkins,  A. Heyden,  S. Hirata,  
 G. Kedziora,  F. J. Keil,  C. Kelley,  P. P. Korambath,  W. Kurlancheek,  
 A. M. Lee,  M. S. Lee,  D. Liotard,  I. Lotan,  P. E. Maslen,  N. Nair,  
 D. Neuhauser,  R. Olson,  B. Peters,  J. Ritchie,  N. E. Schultz,  
 N. Shenvi,  A. C. Simmonett,  K. S. Thanthiriwatte,  Q. Wu,  W. Zhang

 Please cite Q-Chem as follows:
 Y. Shao et al., Mol. Phys. 113, 184-215 (2015)
 DOI: 10.1080/00268976.2014.952696

 Q-Chem 4.4.1 for Intel X86 Linux

 Parts of Q-Chem use Armadillo 5.200.1 (Boston Tea Smuggler).
 http://arma.sourceforge.net/

 Q-Chem begins on Fri Jan 17 19:18:25 2020  

Host: 
0

     Scratch files written to /tmp/5732598.priya/ZrOx.save//
 Jul2716 11668_ 21447  21445 5558   
 Parallel job on  1  processors
Processing $rem in /usr/usc/qchem/4.4/config/preferences.
 MEM_TOTAL  2000 
The previous job contains 0 fragments, simply inherited here

Checking the input file for inconsistencies... 	...done.

--------------------------------------------------------------
User input:
--------------------------------------------------------------

$comment
-----------------------
A GEOMETRY OPTIMIZATION
-----------------------
$end

$molecule
READ
$end

$rem
JOBTYPE   OPT
METHOD   B3LYP
BASIS   GEN
ECP   GEN
SCF_GUESS   READ
MAX_SCF_CYCLES   200
SCF_CONVERGENCE 8
SCF_PRINT 1
PDB_PRINT 2
THRESH 14
VARTHRESH 14
INCDFT FALSE
SYMMETRY False
Sym_ignore True
SCF_ALGORITHM GDM
XC_GRID 000128000302
GEOM_OPT_MAX_CYCLES 200
DFT_D           EMPIRICAL_GRIMME3
DFT_D3_S6       1000
DFT_D3_RS6     1261
DFT_D3_S8      1703
DFT_D3_3BODY    FALSE
SCF_PRINT 1
PDB_PRINT 2
$end

$basis
O
6-31+G**
****
S
6-31+G**
****
Zr
LanL2DZ
****
$end

$ecp
Zr
LanL2DZ
****
$end

--------------------------------------------------------------
 ----------------------------------------------------------------
             Standard Nuclear Orientation (Angstroms)
    I     Atom           X                Y                Z
 ----------------------------------------------------------------
    1      Zr     -1.2529600000     0.6064900000     0.0890400000
    2      Zr      0.7653600000    -0.0600100000    -0.4251800000
    3      O       2.2463300000    -0.4860900000     0.9058400000
    4      S      -1.0673900000    -1.6074800000     0.1738100000
    5      O       2.2076300000     0.8551000000     0.4487500000
 ----------------------------------------------------------------
 Nuclear Repulsion Energy =   260.4901414867 hartrees
 There are       28 alpha and       28 beta electrons

 Q-Chem warning in module /home/scratch/svnadmin/11668_zgan/qchem/forms1/BasisType.C, line 1419:

 Setting pure/cartesian flag to 2111 for general basis


 Requested basis set is non-standard
 There are 32 shells and 102 basis functions

 Total QAlloc Memory Limit   2000 MB
 Mega-Array Size        61 MB
 MEM_STATIC part        62 MB
 A cutoff of  1.0D-14 yielded    517 shell pairs
 There are      5332 function pairs (      6102 Cartesian)
 
 -------------------------------------------------------
 OpenMP Integral Computing Module                       
 Release: version 1.0, May 2013, Q-Chem Inc. Pittsburgh 
 -------------------------------------------------------
 Integral Job Info:
 Integral job number is                      11
 Integral operator is                         1
 short-range coefficients                     0
 long-range coefficients              100000000
 Omega coefficients                           0
 if combine SR and LR in K                    0
 Integral screening is                        0
 Integral computing path is                   2
 max size of driver memory is            800000
 size of driver memory is                593474
 size of scratch memory is             15166112
 max col of scratch BK array               1296
 max len of scratch array in speh3          155
 max len of scratch index in speh4           18
 max int batch size is                      520
 min int batch size is                       52
 fixed nKL is                                52
 max L of basis functions is                  2
 order of int derivative is                   0
 number of shells is                         32
 number of basis is                         109
 number of cartesian basis is               109
 number of contracted shell pairs           517
 number of primitive shell pairs           2640
 maxK2 (contraction) of shell pair           36
 max number of K2 of shell pair               1
 max number of CS2 of shell pair             31
 max number of PS2 of shell pair            168
[...]
 
   ------------------- Entering Geometric Direct Minimization ------------------
   GDM::trust : actual energy change is       -2.505430529708974E-009
   GDM::trust : predicted energy change was   -4.114975137818787E-009
   GDM::trust : updated trust radius is        0.330000000000000     
   GDM:         diagonal hessian shift is      0.000000000000000E+000
   GDM::PreWSS: input subspace size is                  9
   GDM::PreWSS: working subspace size set to            9
   GDM::PrEWSS: # of linearly dependent vectors =            7
   GDM::PrEWSS: Max dev from orthonormality =   7.878662999782904E-013
   GDM::BFGS:   lowest Hinv e-value    0.155146974322117     
   GDM::BFGS:   highest Hinv e-value    1.36111958924035     
   GDM::      : max scaling in EWCs is          2.55288080716644     
   GDM::      : max rotation in step is        5.325768992190616E-006
   GDM::        grad.step =  -1.666625077946134E-010
   ------- Leaving GDM -- hopefully with a step in the right direction! --------
 
   12    -641.7849164220      2.86E-06  Gap = 80.95 eV  Normal BFGS step
 
   ------------------- Entering Geometric Direct Minimization ------------------
   GDM::trust : actual energy change is        2.955857780762017E-012
   GDM::trust : predicted energy change was   -2.499937616919201E-010
   GDM::trust : updated trust radius is        0.108900000000000     
   GDM::WARNING energy changes are now smaller than effective accuracy.
   GDM::        calculation will continue, but THRESH should be increased
   GDM::        or SCF_CONVERGENCE decreased.
   GDM::        effective_thresh =   1.862394603119322E-009
   GDM:         diagonal hessian shift is      0.000000000000000E+000
   GDM::PreWSS: input subspace size is                 10
   GDM::PreWSS: working subspace size set to           10
   GDM::PrEWSS: # of linearly dependent vectors =            8
   GDM::PrEWSS: Max dev from orthonormality =   7.646938637861922E-013
   GDM::BFGS:   lowest Hinv e-value    0.154467625161465     
   GDM::BFGS:   highest Hinv e-value    1.39361896619125     
   GDM::      : max scaling in EWCs is          2.55285404641400     
   GDM::      : max rotation in step is       -2.469117883188381E-006
   GDM::        grad.step =  -1.173106074823877E-010
   ------- Leaving GDM -- hopefully with a step in the right direction! --------
 
   13    -641.7849164220      4.17E-06  Gap = 63.14 eV  Normal BFGS step
 
   ------------------- Entering Geometric Direct Minimization ------------------
   GDM::trust : actual energy change is       -8.526512829121202E-011
   GDM::trust : predicted energy change was   -1.759659112235815E-010
   GDM::trust : updated trust radius is        0.330000000000000     
   GDM:         diagonal hessian shift is      0.000000000000000E+000
   GDM::PreWSS: input subspace size is                 11
   GDM::PreWSS: working subspace size set to           11
   GDM::PrEWSS: # of linearly dependent vectors =            9
   GDM::PrEWSS: Max dev from orthonormality =   7.352105035884904E-013
   GDM::BFGS:   lowest Hinv e-value    0.157013813350442     
   GDM::BFGS:   highest Hinv e-value    1.38438517562224     
   GDM::      : max scaling in EWCs is          2.55286068803317     
   GDM::      : max rotation in step is       -2.786661358466487E-006
   GDM::        grad.step =  -3.282814730642882E-011
   ------- Leaving GDM -- hopefully with a step in the right direction! --------
 
   14    -641.7849164221      1.40E-06  Gap = 63.14 eV  Normal BFGS step
 
   ------------------- Entering Geometric Direct Minimization ------------------
   GDM::trust : actual energy change is       -5.229594535194337E-012
   GDM::trust : predicted energy change was   -4.924222095964323E-011
   GDM::trust : updated trust radius is        0.330000000000000     
   GDM:         diagonal hessian shift is      0.000000000000000E+000
   GDM::PreWSS: input subspace size is                 12
   GDM::PreWSS: working subspace size set to           12
   GDM::PrEWSS: # of linearly dependent vectors =           10
   GDM::PrEWSS: Max dev from orthonormality =   3.589390937253079E-012
   GDM::BFGS:   lowest Hinv e-value    0.154965493164047     
   GDM::BFGS:   highest Hinv e-value    1.35974656139724     
   GDM::      : max scaling in EWCs is          2.55287042524566     
   GDM::      : max rotation in step is        1.195092951892583E-006
   GDM::        grad.step =  -1.540498085645659E-011
   ------- Leaving GDM -- hopefully with a step in the right direction! --------
 
   15    -641.7849164221      1.14E-06  Gap = 166.75 eV  Normal BFGS step
 
   ------------------- Entering Geometric Direct Minimization ------------------
   GDM::trust : actual energy change is       -1.455191522836685E-011
   GDM::trust : predicted energy change was   -2.310747128468488E-011
   GDM::trust : updated trust radius is        0.330000000000000     
   GDM:         diagonal hessian shift is      0.000000000000000E+000
   GDM::PreWSS: input subspace size is                 13
   GDM::PreWSS: working subspace size set to           13
   GDM::PrEWSS: # of linearly dependent vectors =           11
   GDM::PrEWSS: Max dev from orthonormality =   5.277760867228309E-012
   GDM::BFGS:   lowest Hinv e-value    0.154730255030403     
   GDM::BFGS:   highest Hinv e-value    1.37269621618477     
   GDM::      : max scaling in EWCs is          2.55286425732709     
   GDM::      : max rotation in step is       -6.646028906840141E-007
   GDM::        grad.step =  -5.561164050152722E-013
   ------- Leaving GDM -- hopefully with a step in the right direction! --------
 
   16    -641.7849164221      2.82E-07  Gap = 166.75 eV  Normal BFGS step
 
   ------------------- Entering Geometric Direct Minimization ------------------
   GDM::trust : actual energy change is       -1.136868377216160E-013
   GDM::trust : predicted energy change was   -8.341746075229084E-013
   GDM::trust : updated trust radius is        0.330000000000000     
   GDM:         diagonal hessian shift is      0.000000000000000E+000
   GDM::PreWSS: input subspace size is                 14
   GDM::PreWSS: working subspace size set to           14
   GDM::PrEWSS: # of linearly dependent vectors =           12
   GDM::PrEWSS: Max dev from orthonormality =   4.997960378894106E-012
   GDM::BFGS:   lowest Hinv e-value    0.154865151966299     
   GDM::BFGS:   highest Hinv e-value    1.38025485520942     
   GDM::      : max scaling in EWCs is          2.55286459491281     
   GDM::      : max rotation in step is        1.044950584244777E-007
   GDM::        grad.step =  -1.610728497327710E-013
   ------- Leaving GDM -- hopefully with a step in the right direction! --------
 
   17    -641.7849164221      1.34E-07  Gap = 166.75 eV  Normal BFGS step
 
   ------------------- Entering Geometric Direct Minimization ------------------
   GDM::trust : actual energy change is       -6.821210263296962E-013
   GDM::trust : predicted energy change was   -2.416092745991564E-013
   GDM::trust : updated trust radius is        0.330000000000000     
   GDM:         diagonal hessian shift is      0.000000000000000E+000
   GDM::PreWSS: input subspace size is                 15
   GDM::PreWSS: working subspace size set to           15
   GDM::PrEWSS: # of linearly dependent vectors =           13
   GDM::PrEWSS: Max dev from orthonormality =   4.557909605296118E-012
   GDM::BFGS:   lowest Hinv e-value    0.154389817591311     
   GDM::BFGS:   highest Hinv e-value    1.38213708240092     
   GDM::      : max scaling in EWCs is          2.55286457468465     
   GDM::      : max rotation in step is       -1.049990073721579E-007
   GDM::        grad.step =  -3.985353215761495E-015
   ------- Leaving GDM -- hopefully with a step in the right direction! --------
 
   18    -641.7849164221      3.40E-08  Gap = 166.75 eV  Normal BFGS step
 
   ------------------- Entering Geometric Direct Minimization ------------------
   GDM::trust : actual energy change is        1.136868377216160E-013
   GDM::trust : predicted energy change was   -5.978029823642245E-015
   GDM::trust : updated trust radius is        0.108900000000000     
   GDM::WARNING energy changes are now smaller than effective accuracy.
   GDM::        calculation will continue, but THRESH should be increased
   GDM::        or SCF_CONVERGENCE decreased.
   GDM::        effective_thresh =   1.862394603119322E-009
   GDM:         diagonal hessian shift is      0.000000000000000E+000
   GDM::PreWSS: input subspace size is                 16
   GDM::PreWSS: working subspace size set to           16
   GDM::PrEWSS: # of linearly dependent vectors =           14
   GDM::PrEWSS: Max dev from orthonormality =   1.623229675673521E-011
   GDM::BFGS:   lowest Hinv e-value    0.154200067967003     
   GDM::BFGS:   highest Hinv e-value    2.04541764266976     
   GDM::      : max scaling in EWCs is          2.55286456237330     
   GDM::      : max rotation in step is       -7.120963747813413E-008
   GDM::        grad.step =  -9.455486818735991E-016
   ------- Leaving GDM -- hopefully with a step in the right direction! --------
 
   19    -641.7849164221      1.33E-08  Gap = 166.75 eV  Normal BFGS step
 
   ------------------- Entering Geometric Direct Minimization ------------------
   GDM::trust : actual energy change is       -5.684341886080801E-013
   GDM::trust : predicted energy change was   -1.418323022810398E-015
   GDM::trust : updated trust radius is        0.330000000000000     
   GDM:         diagonal hessian shift is      0.000000000000000E+000
   GDM::PreWSS: input subspace size is                 17
   GDM::PreWSS: working subspace size set to           14
   GDM::PrEWSS: # of linearly dependent vectors =           10
   GDM::PrEWSS: Max dev from orthonormality =   6.506011007711976E-012
   GDM::BFGS:   lowest Hinv e-value    0.193965767248962     
   GDM::BFGS:   highest Hinv e-value    2.62333806744313     
   GDM::      : max scaling in EWCs is          2.55286455048708     
   GDM::      : max rotation in step is        2.519500475769561E-009
   GDM::        grad.step =  -4.521565688094723E-017
   ------- Leaving GDM -- hopefully with a step in the right direction! --------
 
   20    -641.7849164221      1.69E-09 Convergence criterion met
 ---------------------------------------
 One-Electron    Energy = -1447.8491058084
 Total Coulomb   Energy =   593.1963753947
 Alpha Exchange  Energy =    -5.2042250614
 Beta  Exchange  Energy =    -5.2042250614
 DFT   Exchange  Energy =   -41.6376442440
 DFT Correlation Energy =    -2.5540053776
 Nuclear Repu.   Energy =   267.4679137359
 Nuclear Attr.   Energy = -2042.1073655988
 Kinetic         Energy =   594.2582597904
 SCF time:  CPU 70.56 s  wall 6.49 s
 SCF   energy in the final basis set = -641.7849164221
 Total energy in the final basis set = -641.7849164221
 
 --------------------------------------------------------------
 
                    Orbital Energies (a.u.)
 --------------------------------------------------------------
 
 Alpha MOs
 -- Occupied --
-88.809 -19.209 -19.208  -7.887  -5.847  -5.847  -5.846  -2.024
 -2.011  -1.268  -1.235  -1.220  -1.217  -1.210  -1.178  -1.059
 -0.825  -0.637  -0.444  -0.431  -0.428  -0.310  -0.302  -0.279
 -0.263  -0.249  -0.184  -0.158
 -- Virtual --
 -0.081  -0.076  -0.054  -0.052  -0.045  -0.044  -0.041  -0.030
 -0.020  -0.011   0.021   0.025   0.028   0.036   0.039   0.049
  0.052   0.074   0.093   0.102   0.113   0.115   0.135   0.170
  0.184   0.189   0.198   0.204   0.212   0.219   0.225   0.242
  0.257   0.266   0.275   0.276   0.285   0.288   0.309   0.326
  0.340   0.352   0.387   0.496   0.507   0.564   0.576   0.597
  0.710   0.854   0.856   0.876   0.932   0.978   1.176   1.191
  1.209   1.212   1.258   1.293   1.522   1.524   1.634   1.742
  1.746   1.831   1.866   1.890   1.920   2.318   2.329   3.141
  9.368  10.056
 --------------------------------------------------------------
 
          Ground-State Mulliken Net Atomic Charges

     Atom                 Charge (a.u.)
  ----------------------------------------
      1 Zr                    0.658107
      2 Zr                    0.657905
      3 O                    -0.394371
      4 S                    -0.460958
      5 O                    -0.460683
  ----------------------------------------
  Sum of atomic charges =     0.000000

 -----------------------------------------------------------------
                    Cartesian Multipole Moments
 -----------------------------------------------------------------
    Charge (ESU x 10^10)
                 0.0000
    Dipole Moment (Debye)
         X       0.7231      Y       2.5252      Z      -1.7031
       Tot       3.1305
    Quadrupole Moments (Debye-Ang)
        XX     -70.3322     XY     -10.5246     YY     -69.5947
        XZ     -10.2515     YZ       6.3789     ZZ     -66.4381
    Octopole Moments (Debye-Ang^2)
       XXX     -54.1361    XXY      16.6453    XYY     -14.8109
       YYY      64.1692    XXZ     -12.5895    XYZ       1.8983
       YYZ       0.2064    XZZ     -12.1670    YZZ      12.0666
       ZZZ     -10.4229
    Hexadecapole Moments (Debye-Ang^3)
      XXXX    -559.5160   XXXY     -54.2484   XXYY    -184.3159
      XYYY     -49.0267   YYYY    -480.6850   XXXZ      -0.9960
      XXYZ     -22.8809   XYYZ       5.2608   YYYZ     -58.0591
      XXZZ    -144.1575   XYZZ     -12.9014   YYZZ    -128.4076
      XZZZ       7.5834   YZZZ     -52.8214   ZZZZ    -305.3611
 -----------------------------------------------------------------
 Calculating analytic gradient of the SCF energy
 Gradient of SCF Energy
            1           2           3           4           5
    1  -0.0000193  -0.0001780   0.0000876   0.0002068  -0.0000972
    2  -0.0000514  -0.0000888   0.0000507   0.0001514  -0.0000619
    3  -0.0000033  -0.0000437   0.0001688  -0.0000718  -0.0000499
 Max gradient component =       2.068E-04
 RMS gradient           =       1.064E-04
 Gradient time:  CPU 14.18 s  wall 1.79 s
 Geometry Optimization Parameters
   NAtoms,    NIC,     NZ,  NCons,   NDum,   NFix, NCnnct, MaxDiis
        5      34       0       0       0       0       0       0

 Cartesian Hessian Update
 Hessian Updated using BFGS Update


** GEOMETRY OPTIMIZATION IN DELOCALIZED INTERNAL COORDINATES **
   Searching for a Minimum

   Optimization Cycle:  24

                       Coordinates (Angstroms)
     ATOM                X               Y               Z
      1  Zr       -0.3874726308    0.7080938489    0.5978383640
      2  Zr        1.0954846015   -0.7001058453   -0.8569627164
      3  O         1.5271763717   -0.1544730301    1.2215011646
      4  S        -1.0867279775   -1.5471046539   -0.0988730607
      5  O         1.7505096351    1.0015996804    0.3287562485
   Point Group: c1    Number of degrees of freedom:     9


   Energy is   -641.784916422

 Hessian Updated using BFGS Update

  9 Hessian modes will be used to form the next step
  Hessian Eigenvalues:
     0.031743    0.071123    0.098594    0.139077    0.170261    0.190532
     0.198966    0.360517    0.822433

 Minimum Search - Taking Simple RFO Step
 Searching for Lamda that Minimizes Along All modes
 Value Taken    Lamda =   0.00000000
 Step Taken.  Stepsize is  0.002076

                             Maximum     Tolerance    Cnvgd?
         Gradient           0.000199      0.000300     YES
         Displacement       0.001147      0.001200     YES
         Energy change     -0.000002      0.000001      NO


                       Distance Matrix (Angstroms)
             Zr(  1)   Zr(  2)   O (  3)   S (  4)
   Zr(  2)  2.509708
   O (  3)  2.190630  2.191822
   S (  4)  2.461765  2.460520  3.242731
   O (  5)  2.174746  2.175038  1.477625  3.837796
 
 Final energy is   -641.784916422124     


 ******************************
 **  OPTIMIZATION CONVERGED  **
 ******************************

                       Coordinates (Angstroms)
     ATOM                X               Y               Z
      1  Zr       -0.3874726308    0.7080938489    0.5978383640
      2  Zr        1.0954846015   -0.7001058453   -0.8569627164
      3  O         1.5271763717   -0.1544730301    1.2215011646
      4  S        -1.0867279775   -1.5471046539   -0.0988730607
      5  O         1.7505096351    1.0015996804    0.3287562485

Z-matrix Print:
$molecule
0 1
Zr
O  1 2.175038
O  2 1.477625 1 70.835893
Zr 2 2.174746 1 70.475856 3 75.744607 0
S  1 2.460520 2 111.620316 3 -57.751191 0
$end

 
 --------------------------------------------------------------
 
                    Orbital Energies (a.u.)
 --------------------------------------------------------------
 
 Alpha MOs
 -- Occupied --
-88.809 -19.209 -19.208  -7.887  -5.847  -5.847  -5.846  -2.024
 -2.011  -1.268  -1.235  -1.220  -1.217  -1.210  -1.178  -1.059
 -0.825  -0.637  -0.444  -0.431  -0.428  -0.310  -0.302  -0.279
 -0.263  -0.249  -0.184  -0.158
 -- Virtual --
 -0.081  -0.076  -0.054  -0.052  -0.045  -0.044  -0.041  -0.030
 -0.020  -0.011   0.021   0.025   0.028   0.036   0.039   0.049
  0.052   0.074   0.093   0.102   0.113   0.115   0.135   0.170
  0.184   0.189   0.198   0.204   0.212   0.219   0.225   0.242
  0.257   0.266   0.275   0.276   0.285   0.288   0.309   0.326
  0.340   0.352   0.387   0.496   0.507   0.564   0.576   0.597
  0.710   0.854   0.856   0.876   0.932   0.978   1.176   1.191
  1.209   1.212   1.258   1.293   1.522   1.524   1.634   1.742
  1.746   1.831   1.866   1.890   1.920   2.318   2.329   3.141
  9.368  10.056
 --------------------------------------------------------------
 
          Ground-State Mulliken Net Atomic Charges

     Atom                 Charge (a.u.)
  ----------------------------------------
      1 Zr                    0.658107
      2 Zr                    0.657905
      3 O                    -0.394371
      4 S                    -0.460958
      5 O                    -0.460683
  ----------------------------------------
  Sum of atomic charges =     0.000000

 -----------------------------------------------------------------
                    Cartesian Multipole Moments
 -----------------------------------------------------------------
    Charge (ESU x 10^10)
                 0.0000
    Dipole Moment (Debye)
         X       0.7231      Y       2.5252      Z      -1.7031
       Tot       3.1305
    Quadrupole Moments (Debye-Ang)
        XX     -70.3322     XY     -10.5246     YY     -69.5947
        XZ     -10.2515     YZ       6.3789     ZZ     -66.4381
    Octopole Moments (Debye-Ang^2)
       XXX     -54.1361    XXY      16.6453    XYY     -14.8109
       YYY      64.1692    XXZ     -12.5895    XYZ       1.8983
       YYZ       0.2064    XZZ     -12.1670    YZZ      12.0666
       ZZZ     -10.4229
    Hexadecapole Moments (Debye-Ang^3)
      XXXX    -559.5160   XXXY     -54.2484   XXYY    -184.3159
      XYYY     -49.0267   YYYY    -480.6850   XXXZ      -0.9960
      XXYZ     -22.8809   XYYZ       5.2608   YYYZ     -58.0591
      XXZZ    -144.1575   XYZZ     -12.9014   YYZZ    -128.4076
      XZZZ       7.5834   YZZZ     -52.8214   ZZZZ    -305.3611
 -----------------------------------------------------------------
Archival summary:
1\1\hpc3935\OPT\ProcedureUnspecified\BasisUnspecified\r212(+,1)\liqiuy\FriJan1719:22:412020FriJan1719:22:412020\0\\#,OPT,ProcedureUnspecified,BasisUnspecified,\\56,1\Zr\O,1,2.17504\O,2,1.47762,1,70.8359\Zr,2,2.17475,1,70.4759,3,75.7446,0\S,1,2.46052,2,111.62,3,-57.7512,0\\\@

 Total job time:  255.91s(wall), 2591.42s(cpu) 
 Fri Jan 17 19:22:41 2020

        *************************************************************
        *                                                           *
        *  Thank you very much for using Q-Chem.  Have a nice day.  *
        *                                                           *
        *************************************************************


0 sent ACK to 0 
now end server 0 ... 
cleanup process ... done
