
Running Job 1 of 2 ZrOx.in
qchem ZrOx.in_2749.0 /tmp/5732607.priya/ZrOx.save/ 1
/usr/usc/qchem/4.4/bin/mpi/mpirun_qchem -machinefile /usr/usc/qchem/4.4/bin/mpi/machines -np 1 /usr/usc/qchem/4.4/exe/qcprog.exe ZrOx.in_2749.0 /tmp/5732607.priya/ZrOx.save/

Process 0 of 1 is on hpc3455.hpcc.usc.edu - thread support 0
initial socket setup ...start
initial socket setup ...done 
now start server 0 ... 
Check license passed

                  Welcome to Q-Chem
     A Quantum Leap Into The Future Of Chemistry


 Q-Chem 4.4, Q-Chem, Inc., Pleasanton, CA (2016)

 Y. Shao,  Z. Gan,  E. Epifanovsky,  A. T. B. Gilbert,  M. Wormit,  
 J. Kussmann,  A. W. Lange,  A. Behn,  J. Deng,  X. Feng,  D. Ghosh,  
 M. Goldey,  P. R. Horn,  L. D. Jacobson,  I. Kaliman,  F.Rob,  
 R. Z. Khaliullin,  T. Kus,  A. Landau,  J. Liu,  E. I. Proynov,  Y. M. Rhee,  
 R. M. Richard,  M. A. Rohrdanz,  R. P. Steele,  E. J. Sundstrom,  
 H. L. Woodcock III,  P. M. Zimmerman,  D. Zuev,  B. Albrecht,  E. Alguire,  
 B. Austin,  S. A. Baeppler,  G. J. O. Beran,  Y. A. Bernard,  E. Berquist,  
 K. Brandhorst,  K. B. Bravaya,  S. T. Brown,  D. Casanova,  C.-M. Chang,  
 Y. Chen,  S. H. Chien,  K. D. Closser,  M. P. Coons,  D. L. Crittenden,  
 S. Dasgupta,  M. Diedenhofen,  R. A. DiStasio Jr.,  H. Do,  A. D. Dutoi,  
 R. G. Edgar,  P.-T. Fang,  S. Fatehi,  Q. Feng,  L. Fusti-Molnar,  
 A. Ghysels,  A. Golubeva-Zadorozhnaya,  J. Gomes,  A. Gunina,  
 M. W. D. Hanson-Heine,  P. H. P. Harbach,  A. W. Hauser,  E. G. Hohenstein,  
 Z. C. Holden,  K. Hui,  T.-C. Jagau,  H. Ji,  B. Kaduk,  K. Khistyaev,  
 Jaehoon Kim,  Jihan Kim,  R. A. King,  P. Klunzinger,  D. Kosenkov,  
 T. Kowalczyk,  C. M. Krauter,  A. Kunitsa,  K. U. Lao,  A. Laurent,  
 K. V. Lawler,  D. Lefrancois,  S. Lehtola,  S. V. Levchenko,  C. Y. Lin,  
 Y.-S. Lin,  F. Liu,  E. Livshits,  R. C. Lochan,  A. Luenser,  P. Manohar,  
 S. F. Manzer,  S.-P. Mao,  Y. Mao,  N. Mardirossian,  A. V. Marenich,  
 L. A. Martinez-Martinez,  S. A. Maurer,  N. J. Mayhall,  J.-M. Mewes,  
 A. F. Morrison,  K. Nanda,  C. M. Oana,  R. Olivares-Amaya,  D. P. O'Neill,  
 J. A. Parkhill,  T. M. Perrine,  R. Peverati,  P. A. Pieniazek,  F. Plasser,  
 A. Prociuk,  D. R. Rehn,  E. Rosta,  N. J. Russ,  N. Sergueev,  
 S. M. Sharada,  S. Sharma,  D. W. Small,  A. Sodt,  T. Stauch,  T. Stein,  
 D. Stuck,  Y.-C. Su,  A. J. W. Thom,  T. Tsuchimochi,  L. Vogt,  O. Vydrov,  
 T. Wang,  M. A. Watson,  J. Wenzel,  A. White,  C. F. Williams,  
 V. Vanovschi,  S. Yeganeh,  S. R. Yost,  Z.-Q. You,  I. Y. Zhang,  X. Zhang,  
 Y. Zhao,  B. R. Brooks,  G. K. L. Chan,  D. M. Chipman,  C. J. Cramer,  
 W. A. Goddard III,  M. S. Gordon,  W. J. Hehre,  A. Klamt,  
 H. F. Schaefer III,  M. W. Schmidt,  C. D. Sherrill,  D. G. Truhlar,  
 A. Warshel,  X. Xu,  A. Aspuru-Guzik,  R. Baer,  A. T. Bell,  N. A. Besley,  
 J.-D. Chai,  A. Dreuw,  B. D. Dunietz,  T. R. Furlani,  S. R. Gwaltney,  
 C.-P. Hsu,  Y. Jung,  J. Kong,  D. S. Lambrecht,  W. Liang,  C. Ochsenfeld,  
 V. A. Rassolov,  L. V. Slipchenko,  J. E. Subotnik,  T. Van Voorhis,  
 J. M. Herbert,  A. I. Krylov,  P. M. W. Gill,  M. Head-Gordon

 Contributors to earlier versions of Q-Chem not listed above: 
 R. D. Adamson,  J. Baker,  E. F. C. Byrd,  A. K. Chakraborty,  C.-L. Cheng,  
 H. Dachsel,  R. J. Doerksen,  G. Hawkins,  A. Heyden,  S. Hirata,  
 G. Kedziora,  F. J. Keil,  C. Kelley,  P. P. Korambath,  W. Kurlancheek,  
 A. M. Lee,  M. S. Lee,  D. Liotard,  I. Lotan,  P. E. Maslen,  N. Nair,  
 D. Neuhauser,  R. Olson,  B. Peters,  J. Ritchie,  N. E. Schultz,  
 N. Shenvi,  A. C. Simmonett,  K. S. Thanthiriwatte,  Q. Wu,  W. Zhang

 Please cite Q-Chem as follows:
 Y. Shao et al., Mol. Phys. 113, 184-215 (2015)
 DOI: 10.1080/00268976.2014.952696

 Q-Chem 4.4.1 for Intel X86 Linux

 Parts of Q-Chem use Armadillo 5.200.1 (Boston Tea Smuggler).
 http://arma.sourceforge.net/

 Q-Chem begins on Fri Jan 17 19:20:54 2020  

Host: 
0

     Scratch files written to /tmp/5732607.priya/ZrOx.save//
 Jul2716 11668_ 21447  21445 5558   
 Parallel job on  1  processors
Processing $rem in /usr/usc/qchem/4.4/config/preferences.
 MEM_TOTAL  2000 

Checking the input file for inconsistencies... 	...done.

--------------------------------------------------------------
User input:
--------------------------------------------------------------
$comment
--------------------------------------------------------
A SINGLE POINT DFT CALCULATION WITH BASIS SET PROJECTION
--------------------------------------------------------
$end

$molecule
0 3
Zr -1.49233 0.39186 0.11425
Zr 0.46218 -0.32477 -0.48141
O 1.89858 -0.66990 0.89219
O -1.11800 -1.30963 0.58024
S 2.33556 0.79826 0.21263
$end

$rem
JOBTYPE   SP
METHOD   B3LYP
BASIS   GEN
ECP   GEN
MAX_SCF_CYCLES   200
SCF_CONVERGENCE 8
SCF_PRINT 1
PDB_PRINT 2
THRESH 14
VARTHRESH 14
INCDFT FALSE
SYMMETRY False
Sym_ignore True
SCF_ALGORITHM GDM
XC_GRID 000128000302
DFT_D           EMPIRICAL_GRIMME3
DFT_D3_S6       1000
DFT_D3_RS6     1261
DFT_D3_S8      1703
DFT_D3_3BODY    FALSE
$end

$basis
O
6-31+G**
****
S
6-31+G**
****
Zr
LanL2DZ
****
$end

$ecp
Zr
LanL2DZ
****
$end

--------------------------------------------------------------
 ----------------------------------------------------------------
             Standard Nuclear Orientation (Angstroms)
    I     Atom           X                Y                Z
 ----------------------------------------------------------------
    1      Zr     -1.4923300000     0.3918600000     0.1142500000
    2      Zr      0.4621800000    -0.3247700000    -0.4814100000
    3      O       1.8985800000    -0.6699000000     0.8921900000
    4      O      -1.1180000000    -1.3096300000     0.5802400000
    5      S       2.3355600000     0.7982600000     0.2126300000
 ----------------------------------------------------------------
 Nuclear Repulsion Energy =   264.9483717075 hartrees
 There are       29 alpha and       27 beta electrons

 Q-Chem warning in module /home/scratch/svnadmin/11668_zgan/qchem/forms1/BasisType.C, line 1419:

 Setting pure/cartesian flag to 2111 for general basis


 Requested basis set is non-standard
 There are 32 shells and 102 basis functions

 Total QAlloc Memory Limit   2000 MB
 Mega-Array Size        61 MB
 MEM_STATIC part        62 MB

                       Distance Matrix (Angstroms)
             Zr(  1)   Zr(  2)   O (  3)   O (  4)
   Zr(  2)  2.165290
   O (  3)  3.637416  2.017210
   O (  4)  1.803424  2.143366  3.099407
   S (  5)  3.850660  2.291820  1.675783  4.062686
 
 A cutoff of  1.0D-14 yielded    519 shell pairs
 There are      5344 function pairs (      6115 Cartesian)
 
 -------------------------------------------------------
 OpenMP Integral Computing Module                       
 Release: version 1.0, May 2013, Q-Chem Inc. Pittsburgh 
 -------------------------------------------------------
 Integral Job Info:
 Integral job number is                      11
 Integral operator is                         1
 short-range coefficients                     0
 long-range coefficients              100000000
 Omega coefficients                           0
 if combine SR and LR in K                    0
 Integral screening is                        0
 Integral computing path is                   2
 max size of driver memory is            800000
 size of driver memory is                593474
 size of scratch memory is             15166112
 max col of scratch BK array               1296
 max len of scratch array in speh3          155
 max len of scratch index in speh4           18
 max int batch size is                      520
 min int batch size is                       52
 fixed nKL is                                52
 max L of basis functions is                  2
 order of int derivative is                   0
 number of shells is                         32
 number of basis is                         109
 number of cartesian basis is               109
 number of contracted shell pairs           519
 number of primitive shell pairs           2643
 maxK2 (contraction) of shell pair           36
 max number of K2 of shell pair               1
 max number of CS2 of shell pair             30
 max number of PS2 of shell pair            156
 mem total for path MDJ                   23422
 -------------------------------------------------------
 Requested basis set is non-standard
 Compound shells will be simplified
 There are 42 shells and 102 basis functions
 A cutoff of  1.0D-14 yielded    888 shell pairs
 There are      5314 function pairs (      6085 Cartesian)
 Smallest overlap matrix eigenvalue = 7.98E-04

 Scale SEOQF with 1.000000e-01/1.000000e-01/1.000000e-01

 Standard Electronic Orientation quadrupole field applied
 Nucleus-field energy     =     0.0000000064 hartrees
 Guess MOs from core Hamiltonian diagonalization
 An unrestricted hybrid HF-DFT SCF calculation will be
 performed using Geometric Direct Minimization
 Exchange:     0.2000 Hartree-Fock + 0.0800 Slater + 0.7200 B88
 Correlation:  0.1900 VWN1RPA + 0.8100 LYP
 Using Euler-Maclaurin-Lebedev (128,302) quadrature formula
 Dispersion:   Grimme D3
 SCF converges when RMS gradient is below 1.0E-08
 Maximum number of minimization steps = 200
 using 12 threads for integral computing 
 -------------------------------------------------------
 OpenMP BLAS3 based DFT computing Module                
 Release: version 1.0, May 2013, Q-Chem Inc. Pittsburgh 
 -------------------------------------------------------
 
   ------------------- Entering Geometric Direct Minimization ------------------
   GDM:         diagonal hessian shift is      0.000000000000000E+000
   GDM::PreWSS: input subspace size is                  1
   GDM::PreWSS: working subspace size set to            1
   GDM::PrEWSS: # of linearly dependent vectors =            0
   GDM::PrEWSS: Max dev from orthonormality =   0.000000000000000E+000
   GDM::BFGS:   lowest Hinv e-value     1.00000000000000     
   GDM::BFGS:   highest Hinv e-value    1.00000000000000     
   GDM::      : max scaling in EWCs is          1.41421356237309     
   GDM::      : max rotation in step is        6.566706280484461E-002
   GDM::        grad.step =   -3.44406499382719     
   ------- Leaving GDM -- hopefully with a step in the right direction! --------
 
 ---------------------------------------
  Cycle       Energy        RMS Gradient
 ---------------------------------------
    1    -581.1295242197      1.67E+00  Gap = -809.31 eV  Descent step
 
   ------------------- Entering Geometric Direct Minimization ------------------
   GDM::trust : actual energy change is        -3.40147785504405     
   GDM::trust : predicted energy change was   -0.163350000000000     
   GDM::trust : updated trust radius is        0.330000000000000     
   GDM::search:  On step            1 .  The current bracket is:
       left   : x =  0.0000E+00, e =      -581.1295242197, g = -0.9979E+01
       current: x =  0.3451E+00, e =      -584.5310020747, g = -0.9676E+01
       right  : x =  0.1000E+04, e =      1000.0000000000, g =  0.1000E+04
       next   : x =  0.3451E+01
   GDM::      : max rotation in step is        0.656670628048446     
   ------- Leaving GDM -- hopefully with a step in the right direction! --------
 
    2    -584.5310020747      1.74E+00  Gap = -73.21 eV  Line search: understep
 
   ------------------- Entering Geometric Direct Minimization ------------------
   GDM::trust : actual energy change is        -16.5086058545259     
   GDM::trust : predicted energy change was   -0.163350000000000     
   GDM::trust : updated trust radius is        0.330000000000000     
   GDM:         diagonal hessian shift is      0.000000000000000E+000
   GDM::PreWSS: input subspace size is                  2
   GDM::PreWSS: working subspace size set to            2
   GDM::PrEWSS: # of linearly dependent vectors =            0
   GDM::PrEWSS: Max dev from orthonormality =   6.036837696399289E-016
   GDM::BFGS:   lowest Hinv e-value    0.451672604833969     
   GDM::BFGS:   highest Hinv e-value    1.68467705274573     
   GDM::      : max scaling in EWCs is          1.41421356237309     
   GDM::      : max rotation in step is       -0.120059423755107     
   GDM::        grad.step =   -2.62876620695238     
   ------- Leaving GDM -- hopefully with a step in the right direction! --------
 
    3    -597.6381300742      2.05E+00  Gap = -73.21 eV  Descent step
 
   ------------------- Entering Geometric Direct Minimization ------------------
   GDM::trust : actual energy change is        -2.54721086841562     
   GDM::trust : predicted energy change was   -0.178898764431140     
   GDM::trust : updated trust radius is        0.330000000000000     
   GDM:         diagonal hessian shift is      0.000000000000000E+000
   GDM::PreWSS: input subspace size is                  3
   GDM::PreWSS: working subspace size set to            3
   GDM::PrEWSS: # of linearly dependent vectors =            0
   GDM::PrEWSS: Max dev from orthonormality =   4.171663015029026E-014
   GDM::BFGS:   lowest Hinv e-value    0.431253387788560     
   GDM::BFGS:   highest Hinv e-value    2.00726274442172     
   GDM::      : max scaling in EWCs is          1.41421356237309     
   GDM::      : max rotation in step is       -0.114573513326310     
   GDM::        grad.step =   -2.18571626690020     
   ------- Leaving GDM -- hopefully with a step in the right direction! --------
 
    4    -600.1853409426      1.63E+00  Gap = -73.21 eV  Descent step
 
   ------------------- Entering Geometric Direct Minimization ------------------
   GDM::trust : actual energy change is        -2.11208226267490     
   GDM::trust : predicted energy change was   -0.159523732842622     
   GDM::trust : updated trust radius is        0.330000000000000     
   GDM:         diagonal hessian shift is      0.000000000000000E+000
   GDM::PreWSS: input subspace size is                  4
   GDM::PreWSS: working subspace size set to            4
   GDM::PrEWSS: # of linearly dependent vectors =            0
   GDM::PrEWSS: Max dev from orthonormality =   1.627101231527206E-013
   GDM::BFGS:   lowest Hinv e-value    0.352195540376763     
   GDM::BFGS:   highest Hinv e-value    1.90854730263874     
   GDM::      : max scaling in EWCs is          1.41421356237309     
   GDM::      : max rotation in step is        9.199963756071297E-002
   GDM::        grad.step =   -1.90662789635225     
   ------- Leaving GDM -- hopefully with a step in the right direction! --------
 
    5    -602.2974232053      1.40E+00  Gap = -73.21 eV  Descent step
 
   ------------------- Entering Geometric Direct Minimization ------------------
   GDM::trust : actual energy change is        -1.85630106566873     
   GDM::trust : predicted energy change was   -0.151748663620066     
   GDM::trust : updated trust radius is        0.330000000000000     
   GDM::search:  On step            1 .  The current bracket is:
       left   : x =  0.0000E+00, e =      -602.2974232053, g = -0.6596E+01
       current: x =  0.2890E+00, e =      -604.1537242710, g = -0.6213E+01
       right  : x =  0.1000E+04, e =      1000.0000000000, g =  0.1000E+04
       next   : x =  0.2890E+01
   GDM::      : max rotation in step is        0.919996375607130     
   ------- Leaving GDM -- hopefully with a step in the right direction! --------
 
    6    -604.1537242710      4.72E-01  Gap = -73.21 eV  Line search: understep
 
   ------------------- Entering Geometric Direct Minimization ------------------
   GDM::trust : actual energy change is        -8.53729849280796     
   GDM::trust : predicted energy change was   -0.151748663620066     
   GDM::trust : updated trust radius is        0.330000000000000     
   GDM:         diagonal hessian shift is      0.000000000000000E+000
   GDM::PreWSS: input subspace size is                  5
   GDM::PreWSS: working subspace size set to            5
   GDM::PrEWSS: # of linearly dependent vectors =            0
   GDM::PrEWSS: Max dev from orthonormality =   4.546224507961938E-013
   GDM::BFGS:   lowest Hinv e-value    0.207087731832970     
   GDM::BFGS:   highest Hinv e-value    3.20713544759823     
   GDM::      : max scaling in EWCs is          2.82842712474619     
   GDM::      : max rotation in step is       -0.278085856527569     
   GDM::        grad.step =   -2.09390124966002     
   ------- Leaving GDM -- hopefully with a step in the right direction! --------
 
    7    -610.8347216981      1.89E+00  Gap = 0.00 eV  Descent step
 
   ------------------- Entering Geometric Direct Minimization ------------------
   GDM::trust : actual energy change is        -1.97017779083137     
   GDM::trust : predicted energy change was   -0.275769136554907     
   GDM::trust : updated trust radius is        0.330000000000000     
   GDM:         diagonal hessian shift is      0.000000000000000E+000
   GDM::PreWSS: input subspace size is                  6
   GDM::PreWSS: working subspace size set to            6
   GDM::PrEWSS: # of linearly dependent vectors =            0
   GDM::PrEWSS: Max dev from orthonormality =   3.415462357381216E-013
   GDM::BFGS:   lowest Hinv e-value    0.268341281164475     
   GDM::BFGS:   highest Hinv e-value    4.20615873160914     
   GDM::      : max scaling in EWCs is          2.82842712474619     
   GDM::      : max rotation in step is       -0.360690425723602     
   GDM::        grad.step =   -1.88189705074069     
   ------- Leaving GDM -- hopefully with a step in the right direction! --------
 
    8    -612.8048994889      2.20E+00  Gap = 0.00 eV  Descent step
 
   ------------------- Entering Geometric Direct Minimization ------------------
   GDM::trust : actual energy change is        -1.74573234581328     
   GDM::trust : predicted energy change was   -0.192116482320576     
   GDM::trust : updated trust radius is        0.330000000000000     
   GDM:         diagonal hessian shift is      0.000000000000000E+000
   GDM::PreWSS: input subspace size is                  7
   GDM::PreWSS: working subspace size set to            7
   GDM::PrEWSS: # of linearly dependent vectors =            0
   GDM::PrEWSS: Max dev from orthonormality =   4.401236319839796E-013
   GDM::BFGS:   lowest Hinv e-value    0.225219568780843     
   GDM::BFGS:   highest Hinv e-value    4.29362448755680     
   GDM::      : max scaling in EWCs is          2.82842712474619     
   GDM::      : max rotation in step is        0.391997949410109     
   GDM::        grad.step =   -1.77697260740929     
   ------- Leaving GDM -- hopefully with a step in the right direction! --------
 
    9    -614.5506318347      2.33E+00  Gap = 0.00 eV  Descent step
 
   ------------------- Entering Geometric Direct Minimization ------------------
   GDM::trust : actual energy change is        -1.65103502121599     
   GDM::trust : predicted energy change was   -0.183646728468991     
   GDM::trust : updated trust radius is        0.330000000000000     
   GDM:         diagonal hessian shift is      0.000000000000000E+000
   GDM::PreWSS: input subspace size is                  8
   GDM::PreWSS: working subspace size set to            8
   GDM::PrEWSS: # of linearly dependent vectors =            0
   GDM::PrEWSS: Max dev from orthonormality =   3.207862794840644E-012
   GDM::BFGS:   lowest Hinv e-value    0.195288349930809     
   GDM::BFGS:   highest Hinv e-value    4.41152059312917     
   GDM::      : max scaling in EWCs is          2.82842712474619     
   GDM::      : max rotation in step is        0.348968705204240     
   GDM::        grad.step =   -1.73790474697321     
   ------- Leaving GDM -- hopefully with a step in the right direction! --------
 
   10    -616.2016668560      2.27E+00  Gap = 0.00 eV  Descent step
 
   ------------------- Entering Geometric Direct Minimization ------------------
   GDM::trust : actual energy change is        -1.63445723083635     
   GDM::trust : predicted energy change was   -0.167796646451552     
   GDM::trust : updated trust radius is        0.330000000000000     
   GDM:         diagonal hessian shift is      0.000000000000000E+000
   GDM::PreWSS: input subspace size is                  9
   GDM::PreWSS: working subspace size set to            9
   GDM::PrEWSS: # of linearly dependent vectors =            0
   GDM::PrEWSS: Max dev from orthonormality =   9.081667709520680E-013
   GDM::BFGS:   lowest Hinv e-value    0.174260370581165     
   GDM::BFGS:   highest Hinv e-value    4.35348375171637     
   GDM::      : max scaling in EWCs is          2.82842712474619     
   GDM::      : max rotation in step is       -0.185461106963066     
   GDM::        grad.step =   -1.44931811812482     
   ------- Leaving GDM -- hopefully with a step in the right direction! --------
 
   11    -617.8361240868      1.09E+00  Gap = 0.00 eV  Descent step
 
   ------------------- Entering Geometric Direct Minimization ------------------
   GDM::trust : actual energy change is        -1.42156126853695     
   GDM::trust : predicted energy change was   -0.156205791958092     
   GDM::trust : updated trust radius is        0.330000000000000     
   GDM:         diagonal hessian shift is      0.000000000000000E+000
   GDM::PreWSS: input subspace size is                 10
   GDM::PreWSS: working subspace size set to           10
   GDM::PrEWSS: # of linearly dependent vectors =            0
   GDM::PrEWSS: Max dev from orthonormality =   1.174883107468716E-012
   GDM::BFGS:   lowest Hinv e-value    0.151434143543014     
   GDM::BFGS:   highest Hinv e-value    5.49669625247587     
   GDM::      : max scaling in EWCs is          2.82842712474619     
   GDM::      : max rotation in step is        0.201336181350858     
   GDM::        grad.step =   -1.49075524436777     
   ------- Leaving GDM -- hopefully with a step in the right direction! --------
 
   12    -619.2576853553      1.12E+00  Gap = 0.00 eV  Descent step
 
   ------------------- Entering Geometric Direct Minimization ------------------
   GDM::trust : actual energy change is        -1.45664804873479     
   GDM::trust : predicted energy change was   -0.136040444502875     
   GDM::trust : updated trust radius is        0.330000000000000     
   GDM:         diagonal hessian shift is      0.000000000000000E+000
   GDM::PreWSS: input subspace size is                 11
   GDM::PreWSS: working subspace size set to           11
   GDM::PrEWSS: # of linearly dependent vectors =            0
   GDM::PrEWSS: Max dev from orthonormality =   1.821128317591736E-012
   GDM::BFGS:   lowest Hinv e-value    0.149888132591575     
   GDM::BFGS:   highest Hinv e-value    4.22034518416640     
   GDM::      : max scaling in EWCs is          2.82842712474619     
   GDM::      : max rotation in step is       -0.268761473132952     
   GDM::        grad.step =   -1.53508123478161     
   ------- Leaving GDM -- hopefully with a step in the right direction! --------
 
   13    -620.7143334041      1.34E+00  Gap = 0.00 eV  Descent step
 
   ------------------- Entering Geometric Direct Minimization ------------------
   GDM::trust : actual energy change is        -1.46692109721232     
   GDM::trust : predicted energy change was   -0.145901913185217     
   GDM::trust : updated trust radius is        0.330000000000000     
   GDM:         diagonal hessian shift is      0.000000000000000E+000
   GDM::PreWSS: input subspace size is                 12
   GDM::PreWSS: working subspace size set to           12
   GDM::PrEWSS: # of linearly dependent vectors =            0
   GDM::PrEWSS: Max dev from orthonormality =   3.894867067755214E-012
   GDM::BFGS:   lowest Hinv e-value    0.143796823219162     
   GDM::BFGS:   highest Hinv e-value    5.16841625546807     
   GDM::      : max scaling in EWCs is          2.82842712474619     
   GDM::      : max rotation in step is        0.297077828391050     
   GDM::        grad.step =   -1.40901555074590     
   ------- Leaving GDM -- hopefully with a step in the right direction! --------
 
   14    -622.1812545013      1.36E+00  Gap = 0.00 eV  Descent step
 
   ------------------- Entering Geometric Direct Minimization ------------------
   GDM::trust : actual energy change is        -1.36619635493594     
   GDM::trust : predicted energy change was   -0.158386316107363     
   GDM::trust : updated trust radius is        0.330000000000000     
   GDM:         diagonal hessian shift is      0.000000000000000E+000
   GDM::PreWSS: input subspace size is                 13
   GDM::PreWSS: working subspace size set to           13
   GDM::PrEWSS: # of linearly dependent vectors =            0
   GDM::PrEWSS: Max dev from orthonormality =   2.172845237069509E-012
   GDM::BFGS:   lowest Hinv e-value    0.112363698145954     
   GDM::BFGS:   highest Hinv e-value    6.08047860661531     
   GDM::      : max scaling in EWCs is          2.82842712474619     
   GDM::      : max rotation in step is        0.420290675790069     
   GDM::        grad.step =   -1.69606055159721     
   ------- Leaving GDM -- hopefully with a step in the right direction! --------
 
   15    -623.5474508562      2.79E+00  Gap = -73.21 eV  Descent step
 
   ------------------- Entering Geometric Direct Minimization ------------------
   GDM::trust : actual energy change is        -1.57011533990612     
   GDM::trust : predicted energy change was   -0.195938643487961     
   GDM::trust : updated trust radius is        0.330000000000000     
   GDM:         diagonal hessian shift is      0.000000000000000E+000
   GDM::PreWSS: input subspace size is                 14
   GDM::PreWSS: working subspace size set to           14
   GDM::PrEWSS: # of linearly dependent vectors =            0
   GDM::PrEWSS: Max dev from orthonormality =   4.184234556059430E-012
   GDM::BFGS:   lowest Hinv e-value    0.135584660599147     
   GDM::BFGS:   highest Hinv e-value    7.05374233411541     
   GDM::      : max scaling in EWCs is          2.82842712474619     
   GDM::      : max rotation in step is        0.285949558791933     
   GDM::        grad.step =   -1.38884356556668     
   ------- Leaving GDM -- hopefully with a step in the right direction! --------
 
   16    -625.1175661961      1.29E+00  Gap = -73.21 eV  Descent step
 
   ------------------- Entering Geometric Direct Minimization ------------------
   GDM::trust : actual energy change is        -1.34651310581489     
   GDM::trust : predicted energy change was   -0.175557715735517     
   GDM::trust : updated trust radius is        0.330000000000000     
   GDM:         diagonal hessian shift is      0.000000000000000E+000
   GDM::PreWSS: input subspace size is                 15
   GDM::PreWSS: working subspace size set to           15
   GDM::PrEWSS: # of linearly dependent vectors =            0
   GDM::PrEWSS: Max dev from orthonormality =   2.629500783779548E-012
   GDM::BFGS:   lowest Hinv e-value    0.146084160901802     
   GDM::BFGS:   highest Hinv e-value    7.68956730987661     
   GDM::      : max scaling in EWCs is          2.82842712474619     
   GDM::      : max rotation in step is       -0.112665535187882     
   GDM::        grad.step =   -1.28449358075317     
   ------- Leaving GDM -- hopefully with a step in the right direction! --------
 
   17    -626.4640793019      7.09E-01  Gap = -73.21 eV  Descent step
 
   ------------------- Entering Geometric Direct Minimization ------------------
   GDM::trust : actual energy change is        -1.25611142319985     
   GDM::trust : predicted energy change was   -0.149252512868577     
   GDM::trust : updated trust radius is        0.330000000000000     
   GDM:         diagonal hessian shift is      0.000000000000000E+000
   GDM::PreWSS: input subspace size is                 16
   GDM::PreWSS: working subspace size set to           16
   GDM::PrEWSS: # of linearly dependent vectors =            0
   GDM::PrEWSS: Max dev from orthonormality =   1.840302216171708E-012
   GDM::BFGS:   lowest Hinv e-value    0.121808429173173     
   GDM::BFGS:   highest Hinv e-value    8.37008422475727     
   GDM::      : max scaling in EWCs is          2.82842712474619     
   GDM::      : max rotation in step is       -0.277197612462275     
   GDM::        grad.step =   -1.38725649543447     
   ------- Leaving GDM -- hopefully with a step in the right direction! --------
 
   18    -627.7201907251      1.25E+00  Gap = -73.21 eV  Descent step
 
   ------------------- Entering Geometric Direct Minimization ------------------
   GDM::trust : actual energy change is        -1.33682744661110     
   GDM::trust : predicted energy change was   -0.143734376512995     
   GDM::trust : updated trust radius is        0.330000000000000     
   GDM:         diagonal hessian shift is      0.000000000000000E+000
   GDM::PreWSS: input subspace size is                 17
   GDM::PreWSS: working subspace size set to           17
   GDM::PrEWSS: # of linearly dependent vectors =            0
   GDM::PrEWSS: Max dev from orthonormality =   2.728969827892058E-012
   GDM::BFGS:   lowest Hinv e-value    0.113440672316890     
   GDM::BFGS:   highest Hinv e-value    9.06753663032187     
   GDM::      : max scaling in EWCs is          2.82842712474619     
   GDM::      : max rotation in step is        0.287421888956424     
   GDM::        grad.step =   -1.33385870387497     
   ------- Leaving GDM -- hopefully with a step in the right direction! --------
 
   19    -629.0570181717      1.24E+00  Gap = -73.21 eV  Descent step
 
   ------------------- Entering Geometric Direct Minimization ------------------
   GDM::trust : actual energy change is        -1.28249754289061     
   GDM::trust : predicted energy change was   -0.160772244101101     
   GDM::trust : updated trust radius is        0.330000000000000     
   GDM:         diagonal hessian shift is      0.000000000000000E+000
   GDM::PreWSS: input subspace size is                 18
   GDM::PreWSS: working subspace size set to           18
   GDM::PrEWSS: # of linearly dependent vectors =            0
   GDM::PrEWSS: Max dev from orthonormality =   2.893411205073804E-012
   GDM::BFGS:   lowest Hinv e-value    0.128415995974654     
   GDM::BFGS:   highest Hinv e-value    9.73172459255649     
   GDM::      : max scaling in EWCs is          2.82842712474619     
   GDM::      : max rotation in step is        0.205620076393422     
   GDM::        grad.step =   -1.27255998684419     
   ------- Leaving GDM -- hopefully with a step in the right direction! --------
 
   20    -630.3395157146      1.27E+00  Gap = -73.21 eV  Descent step
 
   ------------------- Entering Geometric Direct Minimization ------------------
   GDM::trust : actual energy change is        -1.22717414094723     
   GDM::trust : predicted energy change was   -0.156966300994310     
   GDM::trust : updated trust radius is        0.330000000000000     
   GDM:         diagonal hessian shift is      0.000000000000000E+000
   GDM::PreWSS: input subspace size is                 19
   GDM::PreWSS: working subspace size set to           18
   GDM::PrEWSS: # of linearly dependent vectors =            0
   GDM::PrEWSS: Max dev from orthonormality =   2.586639236135113E-012
   GDM::BFGS:   lowest Hinv e-value    9.823822509642120E-002
   GDM::BFGS:   highest Hinv e-value    10.4188313871192     
   GDM::      : max scaling in EWCs is          2.82842712474619     
   GDM::      : max rotation in step is       -0.348959459575841     
   GDM::        grad.step =   -1.37264762012780     
   ------- Leaving GDM -- hopefully with a step in the right direction! --------
 
   21    -631.5666898556      2.01E+00  Gap = -73.21 eV  Descent step
 
   ------------------- Entering Geometric Direct Minimization ------------------
   GDM::trust : actual energy change is        -1.29793396199273     
   GDM::trust : predicted energy change was   -0.168489079649713     
   GDM::trust : updated trust radius is        0.330000000000000     
   GDM:         diagonal hessian shift is      0.000000000000000E+000
   GDM::PreWSS: input subspace size is                 19
   GDM::PreWSS: working subspace size set to           18
   GDM::PrEWSS: # of linearly dependent vectors =            0
   GDM::PrEWSS: Max dev from orthonormality =   2.759186976120098E-012
   GDM::BFGS:   lowest Hinv e-value    0.113515822384849     
   GDM::BFGS:   highest Hinv e-value    10.9845134805155     
   GDM::      : max scaling in EWCs is          2.82842712474619     
   GDM::      : max rotation in step is        0.291213518472322     
   GDM::        grad.step =   -1.08639604162138     
   ------- Leaving GDM -- hopefully with a step in the right direction! --------
 
   22    -632.8646238176      1.03E+00  Gap = -73.21 eV  Descent step
 
   ------------------- Entering Geometric Direct Minimization ------------------
   GDM::trust : actual energy change is        -1.04237855575843     
   GDM::trust : predicted energy change was   -0.170817817900269     
   GDM::trust : updated trust radius is        0.330000000000000     
   GDM:         diagonal hessian shift is      0.000000000000000E+000
   GDM::PreWSS: input subspace size is                 19
   GDM::PreWSS: working subspace size set to           18
   GDM::PrEWSS: # of linearly dependent vectors =            0
   GDM::PrEWSS: Max dev from orthonormality =   1.190249288018919E-012
   GDM::BFGS:   lowest Hinv e-value    0.152347997903354     
   GDM::BFGS:   highest Hinv e-value    11.4613926220410     
   GDM::      : max scaling in EWCs is          2.82842712474619     
   GDM::      : max rotation in step is       -0.173232810784704     
   GDM::        grad.step =  -0.910304503874418     
   ------- Leaving GDM -- hopefully with a step in the right direction! --------
 
   23    -633.9070023733      8.24E-01  Gap = -73.21 eV  Descent step
 
   ------------------- Entering Geometric Direct Minimization ------------------
   GDM::trust : actual energy change is       -0.882155663992421     
   GDM::trust : predicted energy change was   -0.140858993663426     
   GDM::trust : updated trust radius is        0.330000000000000     
   GDM:         diagonal hessian shift is      0.000000000000000E+000
   GDM::PreWSS: input subspace size is                 19
   GDM::PreWSS: working subspace size set to           18
   GDM::PrEWSS: # of linearly dependent vectors =            0
   GDM::PrEWSS: Max dev from orthonormality =   1.401368604492248E-012
   GDM::BFGS:   lowest Hinv e-value    0.117090812503634     
   GDM::BFGS:   highest Hinv e-value    11.8857669179351     
   GDM::      : max scaling in EWCs is          2.82842712474619     
   GDM::      : max rotation in step is       -0.383823842400069     
   GDM::        grad.step =   -1.02249506928642     
   ------- Leaving GDM -- hopefully with a step in the right direction! --------
 
   24    -634.7891580373      1.60E+00  Gap = -73.21 eV  Descent step
 
   ------------------- Entering Geometric Direct Minimization ------------------
   GDM::trust : actual energy change is       -0.945333708335056     
   GDM::trust : predicted energy change was   -0.162353180173555     
   GDM::trust : updated trust radius is        0.330000000000000     
   GDM:         diagonal hessian shift is      0.000000000000000E+000
   GDM::PreWSS: input subspace size is                 19
   GDM::PreWSS: working subspace size set to           18
   GDM::PrEWSS: # of linearly dependent vectors =            0
   GDM::PrEWSS: Max dev from orthonormality =   2.685036221139470E-012
   GDM::BFGS:   lowest Hinv e-value    0.142465444020185     
   GDM::BFGS:   highest Hinv e-value    12.4524465960880     
   GDM::      : max scaling in EWCs is          2.82842712474619     
   GDM::      : max rotation in step is       -0.392952502275423     
   GDM::        grad.step =  -0.812596860585567     
   ------- Leaving GDM -- hopefully with a step in the right direction! --------
 
   25    -635.7344917457      1.04E+00  Gap = -73.21 eV  Descent step
 
   ------------------- Entering Geometric Direct Minimization ------------------
   GDM::trust : actual energy change is       -0.767819521757929     
   GDM::trust : predicted energy change was   -0.162817762263595     
   GDM::trust : updated trust radius is        0.330000000000000     
   GDM:         diagonal hessian shift is      0.000000000000000E+000
   GDM::PreWSS: input subspace size is                 19
   GDM::PreWSS: working subspace size set to           18
   GDM::PrEWSS: # of linearly dependent vectors =            0
   GDM::PrEWSS: Max dev from orthonormality =   1.495050611088899E-012
   GDM::BFGS:   lowest Hinv e-value    0.172300249429466     
   GDM::BFGS:   highest Hinv e-value    12.5044128563460     
   GDM::      : max scaling in EWCs is          2.82842712474619     
   GDM::      : max rotation in step is       -0.152630623821902     
   GDM::        grad.step =  -0.684586033698305     
   ------- Leaving GDM -- hopefully with a step in the right direction! --------
 
   26    -636.5023112674      5.36E-01  Gap = -73.21 eV  Descent step
 
   ------------------- Entering Geometric Direct Minimization ------------------
   GDM::trust : actual energy change is       -0.667828034462445     
   GDM::trust : predicted energy change was   -0.139591080134757     
   GDM::trust : updated trust radius is        0.330000000000000     
   GDM:         diagonal hessian shift is      0.000000000000000E+000
   GDM::PreWSS: input subspace size is                 19
   GDM::PreWSS: working subspace size set to           18
   GDM::PrEWSS: # of linearly dependent vectors =            0
   GDM::PrEWSS: Max dev from orthonormality =   2.869522328086127E-012
   GDM::BFGS:   lowest Hinv e-value    0.157046409044356     
   GDM::BFGS:   highest Hinv e-value    12.8185941578470     
   GDM::      : max scaling in EWCs is          2.82842712474619     
   GDM::      : max rotation in step is       -0.395138043600443     
   GDM::        grad.step =  -0.746655897836254     
   ------- Leaving GDM -- hopefully with a step in the right direction! --------
 
   27    -637.1701393019      9.58E-01  Gap = -73.21 eV  Descent step
 
   ------------------- Entering Geometric Direct Minimization ------------------
   GDM::trust : actual energy change is       -0.709193161679309     
   GDM::trust : predicted energy change was   -0.143439518330681     
   GDM::trust : updated trust radius is        0.330000000000000     
   GDM:         diagonal hessian shift is      0.000000000000000E+000
   GDM::PreWSS: input subspace size is                 19
   GDM::PreWSS: working subspace size set to           18
   GDM::PrEWSS: # of linearly dependent vectors =            0
   GDM::PrEWSS: Max dev from orthonormality =   2.079100780427723E-012
   GDM::BFGS:   lowest Hinv e-value    0.179666062413511     
   GDM::BFGS:   highest Hinv e-value    13.2287240138235     
   GDM::      : max scaling in EWCs is          2.82842712474619     
   GDM::      : max rotation in step is        0.346620630212307     
   GDM::        grad.step =  -0.773948665123404     
   ------- Leaving GDM -- hopefully with a step in the right direction! --------
 
   28    -637.8793324636      1.07E+00  Gap = -73.21 eV  Descent step
 
   ------------------- Entering Geometric Direct Minimization ------------------
   GDM::trust : actual energy change is       -0.723460860162277     
   GDM::trust : predicted energy change was   -0.174336729459733     
   GDM::trust : updated trust radius is        0.330000000000000     
   GDM:         diagonal hessian shift is      0.000000000000000E+000
   GDM::PreWSS: input subspace size is                 19
   GDM::PreWSS: working subspace size set to           18
   GDM::PrEWSS: # of linearly dependent vectors =            0
   GDM::PrEWSS: Max dev from orthonormality =   1.278217115485702E-012
   GDM::BFGS:   lowest Hinv e-value    0.155420461660286     
   GDM::BFGS:   highest Hinv e-value    12.8370474158558     
   GDM::      : max scaling in EWCs is          2.82842712474619     
   GDM::      : max rotation in step is       -0.522342141689852     
   GDM::        grad.step =  -0.831649343247734     
   ------- Leaving GDM -- hopefully with a step in the right direction! --------
 
   29    -638.6027933237      1.64E+00  Gap = -73.21 eV  Descent step
 
   ------------------- Entering Geometric Direct Minimization ------------------
   GDM::trust : actual energy change is       -0.779774329213069     
   GDM::trust : predicted energy change was   -0.192224278141932     
   GDM::trust : updated trust radius is        0.330000000000000     
   GDM:         diagonal hessian shift is      0.000000000000000E+000
   GDM::PreWSS: input subspace size is                 19
   GDM::PreWSS: working subspace size set to           18
   GDM::PrEWSS: # of linearly dependent vectors =            0
   GDM::PrEWSS: Max dev from orthonormality =   1.109036473767588E-012
   GDM::BFGS:   lowest Hinv e-value    0.174107489671104     
   GDM::BFGS:   highest Hinv e-value    11.7960864307525     
   GDM::      : max scaling in EWCs is          2.82842712474619     
   GDM::      : max rotation in step is        0.649077128391763     
   GDM::        grad.step =  -0.729151905803917     
   ------- Leaving GDM -- hopefully with a step in the right direction! --------
 
   30    -639.3825676529      1.54E+00  Gap = -73.21 eV  Descent step
 
   ------------------- Entering Geometric Direct Minimization ------------------
   GDM::trust : actual energy change is       -0.636091848636056     
   GDM::trust : predicted energy change was   -0.180688361106725     
   GDM::trust : updated trust radius is        0.330000000000000     
   GDM:         diagonal hessian shift is      0.000000000000000E+000
   GDM::PreWSS: input subspace size is                 19
   GDM::PreWSS: working subspace size set to           18
   GDM::PrEWSS: # of linearly dependent vectors =            0
   GDM::PrEWSS: Max dev from orthonormality =   1.019998321916127E-012
   GDM::BFGS:   lowest Hinv e-value    0.163282780191260     
   GDM::BFGS:   highest Hinv e-value    11.9586798448191     
   GDM::      : max scaling in EWCs is          2.82842712474619     
   GDM::      : max rotation in step is       -0.534554381889954     
   GDM::        grad.step =  -0.553605391658915     
   ------- Leaving GDM -- hopefully with a step in the right direction! --------
 
   31    -640.0186595016      9.61E-01  Gap = -73.21 eV  Descent step
 
   ------------------- Entering Geometric Direct Minimization ------------------
   GDM::trust : actual energy change is       -0.440410619097179     
   GDM::trust : predicted energy change was   -0.208708101577859     
   GDM::trust : updated trust radius is        0.330000000000000     
   GDM:         diagonal hessian shift is      0.000000000000000E+000
   GDM::PreWSS: input subspace size is                 19
   GDM::PreWSS: working subspace size set to           18
   GDM::PrEWSS: # of linearly dependent vectors =            0
   GDM::PrEWSS: Max dev from orthonormality =   2.951597299905018E-013
   GDM::BFGS:   lowest Hinv e-value    0.149807336821393     
   GDM::BFGS:   highest Hinv e-value    11.2890374018366     
   GDM::      : max scaling in EWCs is          2.82842712474619     
   GDM::      : max rotation in step is        0.236327521789497     
   GDM::        grad.step =  -0.399372179246137     
   ------- Leaving GDM -- hopefully with a step in the right direction! --------
 
   32    -640.4590701207      3.06E-01  Gap = -73.21 eV  Descent step
 
   ------------------- Entering Geometric Direct Minimization ------------------
   GDM::trust : actual energy change is       -0.321075403241025     
   GDM::trust : predicted energy change was   -0.157657463310302     
   GDM::trust : updated trust radius is        0.330000000000000     
   GDM:         diagonal hessian shift is      0.000000000000000E+000
   GDM::PreWSS: input subspace size is                 19
   GDM::PreWSS: working subspace size set to           18
   GDM::PrEWSS: # of linearly dependent vectors =            0
   GDM::PrEWSS: Max dev from orthonormality =   1.318001263683755E-012
   GDM::BFGS:   lowest Hinv e-value    0.172252229339398     
   GDM::BFGS:   highest Hinv e-value    11.2540703314252     
   GDM::      : max scaling in EWCs is          2.82842712474619     
   GDM::      : max rotation in step is        0.196205437917633     
   GDM::        grad.step =  -0.283019493961351     
   ------- Leaving GDM -- hopefully with a step in the right direction! --------
 
   33    -640.7801455239      1.80E-01  Gap = -73.21 eV  Descent step
 
   ------------------- Entering Geometric Direct Minimization ------------------
   GDM::trust : actual energy change is       -0.235705036480567     
   GDM::trust : predicted energy change was   -0.179445246748559     
   GDM::trust : updated trust radius is        0.330000000000000     
   GDM:         diagonal hessian shift is      0.000000000000000E+000
   GDM::PreWSS: input subspace size is                 19
   GDM::PreWSS: working subspace size set to           18
   GDM::PrEWSS: # of linearly dependent vectors =            0
   GDM::PrEWSS: Max dev from orthonormality =   3.966445227820969E-013
   GDM::BFGS:   lowest Hinv e-value    0.198060603660767     
   GDM::BFGS:   highest Hinv e-value    11.2252098878832     
   GDM::      : max scaling in EWCs is          2.82842712474619     
   GDM::      : max rotation in step is       -0.229541775983191     
   GDM::        grad.step =  -0.226019870520340     
   ------- Leaving GDM -- hopefully with a step in the right direction! --------
 
   34    -641.0158505604      1.68E-01  Gap = -73.21 eV  Descent step
 
   ------------------- Entering Geometric Direct Minimization ------------------
   GDM::trust : actual energy change is       -0.160249338450512     
   GDM::trust : predicted energy change was   -0.147435326005207     
   GDM::trust : updated trust radius is        0.330000000000000     
   GDM:         diagonal hessian shift is      0.000000000000000E+000
   GDM::PreWSS: input subspace size is                 19
   GDM::PreWSS: working subspace size set to           18
   GDM::PrEWSS: # of linearly dependent vectors =            0
   GDM::PrEWSS: Max dev from orthonormality =   2.214964323066226E-013
   GDM::BFGS:   lowest Hinv e-value    0.197613161032557     
   GDM::BFGS:   highest Hinv e-value    11.9332189241953     
   GDM::      : max scaling in EWCs is          2.82842712474619     
   GDM::      : max rotation in step is        0.220403878952359     
   GDM::        grad.step =  -0.238049203615344     
   ------- Leaving GDM -- hopefully with a step in the right direction! --------
 
   35    -641.1760998988      1.70E-01  Gap = -73.21 eV  Descent step
 
   ------------------- Entering Geometric Direct Minimization ------------------
   GDM::trust : actual energy change is       -0.110019295630195     
   GDM::trust : predicted energy change was   -0.258453881779631     
   GDM::trust : updated trust radius is        0.330000000000000     
   GDM:         diagonal hessian shift is      0.000000000000000E+000
   GDM::PreWSS: input subspace size is                 19
   GDM::PreWSS: working subspace size set to           18
   GDM::PrEWSS: # of linearly dependent vectors =            0
   GDM::PrEWSS: Max dev from orthonormality =   4.812417825350579E-013
   GDM::BFGS:   lowest Hinv e-value    0.120390445044274     
   GDM::BFGS:   highest Hinv e-value    11.3820135894825     
   GDM::      : max scaling in EWCs is          2.82842712474619     
   GDM::      : max rotation in step is        0.251884583377617     
   GDM::        grad.step =  -0.330688729222390     
   ------- Leaving GDM -- hopefully with a step in the right direction! --------
 
   36    -641.2861191945      2.70E-01  Gap = -73.21 eV  Descent step
 
   ------------------- Entering Geometric Direct Minimization ------------------
   GDM::trust : actual energy change is       -8.201993203783786E-003
   GDM::trust : predicted energy change was   -0.425023680950054     
   GDM::trust : updated trust radius is        0.330000000000000     
   GDM:         diagonal hessian shift is      0.000000000000000E+000
   GDM::PreWSS: input subspace size is                 19
   GDM::PreWSS: working subspace size set to           18
   GDM::PrEWSS: # of linearly dependent vectors =            0
   GDM::PrEWSS: Max dev from orthonormality =   1.884794403883561E-013
   GDM::BFGS:   lowest Hinv e-value    0.124804721625379     
   GDM::BFGS:   highest Hinv e-value    13.6537123032533     
   GDM::      : max scaling in EWCs is          2.82842712474619     
   GDM::      : max rotation in step is       -0.205150858235502     
   GDM::        grad.step =  -0.472542231160349     
   ------- Leaving GDM -- hopefully with a step in the right direction! --------
 
   37    -641.2943211877      3.54E-01  Gap = -73.21 eV  Descent step
 
   ------------------- Entering Geometric Direct Minimization ------------------
   GDM::trust : actual energy change is       -7.788495889565183E-002
   GDM::trust : predicted energy change was   -0.486382941320534     
   GDM::trust : updated trust radius is        0.330000000000000     
   GDM:         diagonal hessian shift is      0.000000000000000E+000
   GDM::PreWSS: input subspace size is                 19
   GDM::PreWSS: working subspace size set to           18
   GDM::PrEWSS: # of linearly dependent vectors =            0
   GDM::PrEWSS: Max dev from orthonormality =   3.469377563014575E-013
   GDM::BFGS:   lowest Hinv e-value    0.101076632722968     
   GDM::BFGS:   highest Hinv e-value    11.1776228211576     
   GDM::      : max scaling in EWCs is          2.82842712474619     
   GDM::      : max rotation in step is        0.278682492320154     
   GDM::        grad.step =  -0.381494784271370     
   ------- Leaving GDM -- hopefully with a step in the right direction! --------
 
   38    -641.3722061466      3.90E-01  Gap = -73.21 eV  Descent step
 
   ------------------- Entering Geometric Direct Minimization ------------------
   GDM::trust : actual energy change is        1.445869650797249E-002
   GDM::trust : predicted energy change was   -0.490637574732730     
   GDM::trust : updated trust radius is        0.108900000000000     
   GDM::search:  On step            1 .  The current bracket is:
       left   : x =  0.0000E+00, e =      -641.3722061466, g = -0.5196E+00
       current: x =  0.7343E+00, e =      -641.3577474501, g =  0.5949E+00
       right  : x =  0.1000E+04, e =      1000.0000000000, g =  0.1000E+04
       next   : x =  0.3537E+00
   GDM::      : max rotation in step is        0.134253040380687     
   ------- Leaving GDM -- hopefully with a step in the right direction! --------
 
   39    -641.3577474501      4.69E-02  Gap = -73.21 eV  Line search: overstep
 
   ------------------- Entering Geometric Direct Minimization ------------------
   GDM::trust : actual energy change is       -9.764780922773753E-002
   GDM::trust : predicted energy change was   -0.490637574732730     
   GDM::trust : updated trust radius is        0.108900000000000     
   GDM:         diagonal hessian shift is      0.000000000000000E+000
   GDM::PreWSS: input subspace size is                 19
   GDM::PreWSS: working subspace size set to           18
   GDM::PrEWSS: # of linearly dependent vectors =            0
   GDM::PrEWSS: Max dev from orthonormality =   4.709843626216070E-013
   GDM::BFGS:   lowest Hinv e-value    0.148291954710405     
   GDM::BFGS:   highest Hinv e-value    11.9702199513353     
   GDM::      : max scaling in EWCs is          2.82842712474619     
   GDM::      : max rotation in step is       -0.107246381596359     
   GDM::        grad.step =  -5.538822692072788E-002
   ------- Leaving GDM -- hopefully with a step in the right direction! --------
 
   40    -641.4698539558      1.77E-01  Gap = -68.42 eV  Descent step
 
   ------------------- Entering Geometric Direct Minimization ------------------
   GDM::trust : actual energy change is       -5.032103819075928E-002
   GDM::trust : predicted energy change was   -1.774333663114204E-002
   GDM::trust : updated trust radius is        0.330000000000000     
   GDM:         diagonal hessian shift is      0.000000000000000E+000
   GDM::PreWSS: input subspace size is                 19
   GDM::PreWSS: working subspace size set to           18
   GDM::PrEWSS: # of linearly dependent vectors =            0
   GDM::PrEWSS: Max dev from orthonormality =   2.171526847227767E-013
   GDM::BFGS:   lowest Hinv e-value    0.120711224752474     
   GDM::BFGS:   highest Hinv e-value    12.0053799328955     
   GDM::      : max scaling in EWCs is          2.82842712474619     
   GDM::      : max rotation in step is       -0.386841155225655     
   GDM::        grad.step =  -0.141274204462590     
   ------- Leaving GDM -- hopefully with a step in the right direction! --------
 
   41    -641.5201749940      1.77E-01  Gap = -73.21 eV  Descent step
 
   ------------------- Entering Geometric Direct Minimization ------------------
   GDM::trust : actual energy change is       -0.103834062873943     
   GDM::trust : predicted energy change was   -0.132817680759949     
   GDM::trust : updated trust radius is        0.330000000000000     
   GDM:         diagonal hessian shift is      0.000000000000000E+000
   GDM::PreWSS: input subspace size is                 19
   GDM::PreWSS: working subspace size set to           18
   GDM::PrEWSS: # of linearly dependent vectors =            0
   GDM::PrEWSS: Max dev from orthonormality =   1.301840579781555E-013
   GDM::BFGS:   lowest Hinv e-value    0.194896197367289     
   GDM::BFGS:   highest Hinv e-value    10.6702826562649     
   GDM::trust : dogleg step length is          0.330000000000000     
   GDM::      : max scaling in EWCs is          2.82842712474619     
   GDM::      : max rotation in step is        0.347027479615935     
   GDM::        grad.step =  -8.652204977018971E-002
   ------- Leaving GDM -- hopefully with a step in the right direction! --------
 
   42    -641.6240090569      1.07E-01  Gap = -73.21 eV  Dog-leg BFGS step
 
   ------------------- Entering Geometric Direct Minimization ------------------
   GDM::trust : actual energy change is       -4.177751756060388E-004
   GDM::trust : predicted energy change was   -0.143539753502395     
   GDM::trust : updated trust radius is        0.330000000000000     
   GDM:         diagonal hessian shift is      0.000000000000000E+000
   GDM::PreWSS: input subspace size is                 19
   GDM::PreWSS: working subspace size set to           18
   GDM::PrEWSS: # of linearly dependent vectors =            0
   GDM::PrEWSS: Max dev from orthonormality =   7.980768823578899E-014
   GDM::BFGS:   lowest Hinv e-value    0.175382922119890     
   GDM::BFGS:   highest Hinv e-value    11.2514578934064     
   GDM::      : max scaling in EWCs is          2.82842712474619     
   GDM::      : max rotation in step is        0.227165640736134     
   GDM::        grad.step =  -9.186696322097807E-002
   ------- Leaving GDM -- hopefully with a step in the right direction! --------
 
   43    -641.6244268320      1.02E-01  Gap = -73.21 eV  Normal BFGS step
 
   ------------------- Entering Geometric Direct Minimization ------------------
   GDM::trust : actual energy change is        7.171914558966819E-003
   GDM::trust : predicted energy change was   -0.137800444831467     
   GDM::trust : updated trust radius is        0.108900000000000     
   GDM::search:  On step            1 .  The current bracket is:
       left   : x =  0.0000E+00, e =      -641.6244268320, g = -0.1653E+00
       current: x =  0.5558E+00, e =      -641.6172549175, g =  0.2219E+00
       right  : x =  0.1000E+04, e =      1000.0000000000, g =  0.1000E+04
       next   : x =  0.2578E+00
   GDM::      : max rotation in step is        0.105357704117697     
   ------- Leaving GDM -- hopefully with a step in the right direction! --------
 
   44    -641.6172549175      1.95E-02  Gap = -73.21 eV  Line search: overstep
 
   ------------------- Entering Geometric Direct Minimization ------------------
   GDM::trust : actual energy change is       -2.352575396037082E-002
   GDM::trust : predicted energy change was   -0.137800444831467     
   GDM::trust : updated trust radius is        0.108900000000000     
   GDM:         diagonal hessian shift is      0.000000000000000E+000
   GDM::PreWSS: input subspace size is                 19
   GDM::PreWSS: working subspace size set to           18
   GDM::PrEWSS: # of linearly dependent vectors =            0
   GDM::PrEWSS: Max dev from orthonormality =   2.205527427356913E-013
   GDM::BFGS:   lowest Hinv e-value    0.209174355862599     
   GDM::BFGS:   highest Hinv e-value    12.4067837188039     
   GDM::      : max scaling in EWCs is          2.82842712474619     
   GDM::      : max rotation in step is        7.558655966450901E-002
   GDM::        grad.step =  -2.813492480542488E-002
   ------- Leaving GDM -- hopefully with a step in the right direction! --------
 
   45    -641.6479525860      6.34E-02  Gap = -73.21 eV  Descent step
 
   ------------------- Entering Geometric Direct Minimization ------------------
   GDM::trust : actual energy change is       -8.674671261928779E-003
   GDM::trust : predicted energy change was   -2.690944552833640E-002
   GDM::trust : updated trust radius is        0.330000000000000     
   GDM:         diagonal hessian shift is      0.000000000000000E+000
   GDM::PreWSS: input subspace size is                 19
   GDM::PreWSS: working subspace size set to           18
   GDM::PrEWSS: # of linearly dependent vectors =            0
   GDM::PrEWSS: Max dev from orthonormality =   1.569343613394558E-013
   GDM::BFGS:   lowest Hinv e-value    0.233061123915638     
   GDM::BFGS:   highest Hinv e-value    11.3169387097253     
   GDM::      : max scaling in EWCs is          2.82842712474619     
   GDM::      : max rotation in step is        9.831554815990341E-002
   GDM::        grad.step =  -2.649069568088255E-002
   ------- Leaving GDM -- hopefully with a step in the right direction! --------
 
   46    -641.6566272573      5.63E-02  Gap = -73.21 eV  Normal BFGS step
 
   ------------------- Entering Geometric Direct Minimization ------------------
   GDM::trust : actual energy change is        1.352335128103732E-003
   GDM::trust : predicted energy change was   -3.973604352132382E-002
   GDM::trust : updated trust radius is        0.108900000000000     
   GDM::search:  On step            1 .  The current bracket is:
       left   : x =  0.0000E+00, e =      -641.6566272573, g = -0.8091E-01
       current: x =  0.3274E+00, e =      -641.6552749221, g =  0.8661E-01
       right  : x =  0.1000E+04, e =      1000.0000000000, g =  0.1000E+04
       next   : x =  0.1558E+00
   GDM::      : max rotation in step is        4.677018254353570E-002
   ------- Leaving GDM -- hopefully with a step in the right direction! --------
 
   47    -641.6552749221      4.17E-03  Gap = -73.21 eV  Line search: overstep
 
   ------------------- Entering Geometric Direct Minimization ------------------
   GDM::trust : actual energy change is       -6.214031428271483E-003
   GDM::trust : predicted energy change was   -3.973604352132382E-002
   GDM::trust : updated trust radius is        0.108900000000000     
   GDM:         diagonal hessian shift is      0.000000000000000E+000
   GDM::PreWSS: input subspace size is                 19
   GDM::PreWSS: working subspace size set to           18
   GDM::PrEWSS: # of linearly dependent vectors =            0
   GDM::PrEWSS: Max dev from orthonormality =   1.712588404423343E-013
   GDM::BFGS:   lowest Hinv e-value    0.238413574016664     
   GDM::BFGS:   highest Hinv e-value    10.3686214881800     
   GDM::      : max scaling in EWCs is          2.82842712474619     
   GDM::      : max rotation in step is        7.764061793554143E-002
   GDM::        grad.step =  -1.394743393539276E-002
   ------- Leaving GDM -- hopefully with a step in the right direction! --------
 
   48    -641.6628412887      3.23E-02  Gap = -73.21 eV  Descent step
 
   ------------------- Entering Geometric Direct Minimization ------------------
   GDM::trust : actual energy change is        5.155622352049249E-003
   GDM::trust : predicted energy change was   -2.658166272196252E-002
   GDM::trust : updated trust radius is        0.108900000000000     
   GDM::search:  On step            1 .  The current bracket is:
       left   : x =  0.0000E+00, e =      -641.6628412887, g = -0.8251E-01
       current: x =  0.1690E+00, e =      -641.6576856663, g =  0.1409E+00
       right  : x =  0.1000E+04, e =      1000.0000000000, g =  0.1000E+04
       next   : x =  0.6171E-01
   GDM::      : max rotation in step is        2.834330206289828E-002
   ------- Leaving GDM -- hopefully with a step in the right direction! --------
 
   49    -641.6576856663      6.94E-03  Gap = -73.21 eV  Line search: overstep
 
   ------------------- Entering Geometric Direct Minimization ------------------
   GDM::trust : actual energy change is       -2.511374225036889E-003
   GDM::trust : predicted energy change was   -2.658166272196252E-002
   GDM::trust : updated trust radius is        0.108900000000000     
   GDM:         diagonal hessian shift is      0.000000000000000E+000
   GDM::PreWSS: input subspace size is                 19
   GDM::PreWSS: working subspace size set to           18
   GDM::PrEWSS: # of linearly dependent vectors =            0
   GDM::PrEWSS: Max dev from orthonormality =   1.336994751022225E-013
   GDM::BFGS:   lowest Hinv e-value    0.210522676992382     
   GDM::BFGS:   highest Hinv e-value    5.45858650809156     
   GDM::      : max scaling in EWCs is          2.82842712474619     
   GDM::      : max rotation in step is        9.963275709271444E-002
   GDM::        grad.step =  -5.169727673591685E-003
   ------- Leaving GDM -- hopefully with a step in the right direction! --------
 
   50    -641.6653526629      2.93E-02  Gap = -73.21 eV  Normal BFGS step
 
   ------------------- Entering Geometric Direct Minimization ------------------
   GDM::trust : actual energy change is       -1.811463566582461E-003
   GDM::trust : predicted energy change was   -7.754591510387527E-003
   GDM::trust : updated trust radius is        0.330000000000000     
   GDM:         diagonal hessian shift is      0.000000000000000E+000
   GDM::PreWSS: input subspace size is                 19
   GDM::PreWSS: working subspace size set to           18
   GDM::PrEWSS: # of linearly dependent vectors =            0
   GDM::PrEWSS: Max dev from orthonormality =   8.855069455471209E-014
   GDM::BFGS:   lowest Hinv e-value    0.218010586157615     
   GDM::BFGS:   highest Hinv e-value    4.11614710184668     
   GDM::      : max scaling in EWCs is          2.82842712474619     
   GDM::      : max rotation in step is        0.140242205119586     
   GDM::        grad.step =  -5.202612920851835E-003
   ------- Leaving GDM -- hopefully with a step in the right direction! --------
 
   51    -641.6671641265      2.69E-02  Gap = -73.21 eV  Normal BFGS step
 
   ------------------- Entering Geometric Direct Minimization ------------------
   GDM::trust : actual energy change is       -2.144567331697544E-003
   GDM::trust : predicted energy change was   -7.803919381277749E-003
   GDM::trust : updated trust radius is        0.330000000000000     
   GDM:         diagonal hessian shift is      0.000000000000000E+000
   GDM::PreWSS: input subspace size is                 19
   GDM::PreWSS: working subspace size set to           18
   GDM::PrEWSS: # of linearly dependent vectors =            0
   GDM::PrEWSS: Max dev from orthonormality =   3.361200207052661E-013
   GDM::BFGS:   lowest Hinv e-value    0.216507902784439     
   GDM::BFGS:   highest Hinv e-value    4.27033885491535     
   GDM::      : max scaling in EWCs is          2.82842712474619     
   GDM::      : max rotation in step is        0.120351415514122     
   GDM::        grad.step =  -3.971774920707192E-003
   ------- Leaving GDM -- hopefully with a step in the right direction! --------
 
   52    -641.6693086938      2.70E-02  Gap = -73.21 eV  Normal BFGS step
 
   ------------------- Entering Geometric Direct Minimization ------------------
   GDM::trust : actual energy change is       -3.034663618791456E-003
   GDM::trust : predicted energy change was   -5.957662381060790E-003
   GDM::trust : updated trust radius is        0.330000000000000     
   GDM:         diagonal hessian shift is      0.000000000000000E+000
   GDM::PreWSS: input subspace size is                 19
   GDM::PreWSS: working subspace size set to           18
   GDM::PrEWSS: # of linearly dependent vectors =            0
   GDM::PrEWSS: Max dev from orthonormality =   3.150604777069077E-013
   GDM::BFGS:   lowest Hinv e-value    0.209994620515262     
   GDM::BFGS:   highest Hinv e-value    7.18071516986875     
   GDM::      : max scaling in EWCs is          2.82842712474619     
   GDM::      : max rotation in step is        0.357370382907991     
   GDM::        grad.step =  -7.958021652732856E-003
   ------- Leaving GDM -- hopefully with a step in the right direction! --------
 
   53    -641.6723433574      2.24E-02  Gap = 47.13 eV  Normal BFGS step
 
   ------------------- Entering Geometric Direct Minimization ------------------
   GDM::trust : actual energy change is       -1.627157484563213E-003
   GDM::trust : predicted energy change was   -1.193703247909929E-002
   GDM::trust : updated trust radius is        0.330000000000000     
   GDM:         diagonal hessian shift is      0.000000000000000E+000
   GDM::PreWSS: input subspace size is                 19
   GDM::PreWSS: working subspace size set to           18
   GDM::PrEWSS: # of linearly dependent vectors =            0
   GDM::PrEWSS: Max dev from orthonormality =   2.241713759065789E-013
   GDM::BFGS:   lowest Hinv e-value    0.212344511451703     
   GDM::BFGS:   highest Hinv e-value    5.67207877103310     
   GDM::      : max scaling in EWCs is          2.82842712474619     
   GDM::      : max rotation in step is        0.104282680260032     
   GDM::        grad.step =  -4.461498562496523E-003
   ------- Leaving GDM -- hopefully with a step in the right direction! --------
 
   54    -641.6739705149      1.80E-02  Gap = 53.49 eV  Normal BFGS step
 
   ------------------- Entering Geometric Direct Minimization ------------------
   GDM::trust : actual energy change is       -1.943044226209167E-003
   GDM::trust : predicted energy change was   -6.692247843744786E-003
   GDM::trust : updated trust radius is        0.330000000000000     
   GDM:         diagonal hessian shift is      0.000000000000000E+000
   GDM::PreWSS: input subspace size is                 19
   GDM::PreWSS: working subspace size set to           18
   GDM::PrEWSS: # of linearly dependent vectors =            0
   GDM::PrEWSS: Max dev from orthonormality =   4.246932666651659E-013
   GDM::BFGS:   lowest Hinv e-value    0.215595413419262     
   GDM::BFGS:   highest Hinv e-value    5.37208637004429     
   GDM::      : max scaling in EWCs is          2.75774988728924     
   GDM::      : max rotation in step is        3.005886232926902E-002
   GDM::        grad.step =  -8.674302851795159E-004
   ------- Leaving GDM -- hopefully with a step in the right direction! --------
 
   55    -641.6759135591      1.06E-02  Gap = 53.49 eV  Normal BFGS step
 
   ------------------- Entering Geometric Direct Minimization ------------------
   GDM::trust : actual energy change is       -3.741661732874491E-004
   GDM::trust : predicted energy change was   -1.301145427769274E-003
   GDM::trust : updated trust radius is        0.330000000000000     
   GDM:         diagonal hessian shift is      0.000000000000000E+000
   GDM::PreWSS: input subspace size is                 19
   GDM::PreWSS: working subspace size set to           18
   GDM::PrEWSS: # of linearly dependent vectors =            0
   GDM::PrEWSS: Max dev from orthonormality =   8.145793067848572E-013
   GDM::BFGS:   lowest Hinv e-value    0.206354253200161     
   GDM::BFGS:   highest Hinv e-value    5.48645006042897     
   GDM::      : max scaling in EWCs is          2.80168452097710     
   GDM::      : max rotation in step is        5.420776962295903E-002
   GDM::        grad.step =  -6.095361534853133E-004
   ------- Leaving GDM -- hopefully with a step in the right direction! --------
 
   56    -641.6762877253      6.10E-03  Gap = 53.49 eV  Normal BFGS step
 
   ------------------- Entering Geometric Direct Minimization ------------------
   GDM::trust : actual energy change is       -2.050721847126624E-004
   GDM::trust : predicted energy change was   -9.143042302279694E-004
   GDM::trust : updated trust radius is        0.330000000000000     
   GDM:         diagonal hessian shift is      0.000000000000000E+000
   GDM::PreWSS: input subspace size is                 19
   GDM::PreWSS: working subspace size set to           18
   GDM::PrEWSS: # of linearly dependent vectors =            0
   GDM::PrEWSS: Max dev from orthonormality =   1.348844647086622E-012
   GDM::BFGS:   lowest Hinv e-value    0.213529365440852     
   GDM::BFGS:   highest Hinv e-value    4.86500335224787     
   GDM::      : max scaling in EWCs is          2.77381644529248     
   GDM::      : max rotation in step is        1.339298351412927E-002
   GDM::        grad.step =  -2.126056345480730E-004
   ------- Leaving GDM -- hopefully with a step in the right direction! --------
 
   57    -641.6764927975      3.87E-03  Gap = 53.49 eV  Normal BFGS step
 
   ------------------- Entering Geometric Direct Minimization ------------------
   GDM::trust : actual energy change is       -7.292529983260465E-005
   GDM::trust : predicted energy change was   -3.189084518221097E-004
   GDM::trust : updated trust radius is        0.330000000000000     
   GDM:         diagonal hessian shift is      0.000000000000000E+000
   GDM::PreWSS: input subspace size is                 19
   GDM::PreWSS: working subspace size set to           18
   GDM::PrEWSS: # of linearly dependent vectors =            0
   GDM::PrEWSS: Max dev from orthonormality =   3.160145756186949E-012
   GDM::BFGS:   lowest Hinv e-value    0.206985962568324     
   GDM::BFGS:   highest Hinv e-value    4.84031552260530     
   GDM::      : max scaling in EWCs is          2.78006195243773     
   GDM::      : max rotation in step is       -6.510099825140291E-003
   GDM::        grad.step =  -5.699975141754674E-005
   ------- Leaving GDM -- hopefully with a step in the right direction! --------
 
   58    -641.6765657228      2.06E-03  Gap = 53.49 eV  Normal BFGS step
 
   ------------------- Entering Geometric Direct Minimization ------------------
   GDM::trust : actual energy change is       -2.676952249203168E-005
   GDM::trust : predicted energy change was   -8.549962712632011E-005
   GDM::trust : updated trust radius is        0.330000000000000     
   GDM:         diagonal hessian shift is      0.000000000000000E+000
   GDM::PreWSS: input subspace size is                 19
   GDM::PreWSS: working subspace size set to           18
   GDM::PrEWSS: # of linearly dependent vectors =            0
   GDM::PrEWSS: Max dev from orthonormality =   1.139477921741072E-011
   GDM::BFGS:   lowest Hinv e-value    0.213516945731765     
   GDM::BFGS:   highest Hinv e-value    4.45875782590088     
   GDM::      : max scaling in EWCs is          2.77627817140659     
   GDM::      : max rotation in step is        5.264338928214906E-003
   GDM::        grad.step =  -9.965584491225985E-006
   ------- Leaving GDM -- hopefully with a step in the right direction! --------
 
   59    -641.6765924923      8.20E-04  Gap = 53.49 eV  Normal BFGS step
 
   ------------------- Entering Geometric Direct Minimization ------------------
   GDM::trust : actual energy change is       -5.778894887953356E-006
   GDM::trust : predicted energy change was   -1.494837673683898E-005
   GDM::trust : updated trust radius is        0.330000000000000     
   GDM:         diagonal hessian shift is      0.000000000000000E+000
   GDM::PreWSS: input subspace size is                 19
   GDM::PreWSS: working subspace size set to           18
   GDM::PrEWSS: # of linearly dependent vectors =            0
   GDM::PrEWSS: Max dev from orthonormality =   2.702142329336077E-011
   GDM::BFGS:   lowest Hinv e-value    0.207830742888819     
   GDM::BFGS:   highest Hinv e-value    4.78817236811197     
   GDM::      : max scaling in EWCs is          2.78073454897008     
   GDM::      : max rotation in step is       -3.381185821004040E-003
   GDM::        grad.step =  -4.282582473403504E-006
   ------- Leaving GDM -- hopefully with a step in the right direction! --------
 
   60    -641.6765982712      7.15E-04  Gap = 53.49 eV  Normal BFGS step
 
   ------------------- Entering Geometric Direct Minimization ------------------
   GDM::trust : actual energy change is       -2.100089886880596E-006
   GDM::trust : predicted energy change was   -6.423873710105255E-006
   GDM::trust : updated trust radius is        0.330000000000000     
   GDM:         diagonal hessian shift is      0.000000000000000E+000
   GDM::PreWSS: input subspace size is                 19
   GDM::PreWSS: working subspace size set to           18
   GDM::PrEWSS: # of linearly dependent vectors =            0
   GDM::PrEWSS: Max dev from orthonormality =   1.279975084256257E-011
   GDM::BFGS:   lowest Hinv e-value    0.206006670143133     
   GDM::BFGS:   highest Hinv e-value    6.07971274259470     
   GDM::      : max scaling in EWCs is          2.78113758321237     
   GDM::      : max rotation in step is        3.487654871633344E-003
   GDM::        grad.step =  -2.371755007259715E-006
   ------- Leaving GDM -- hopefully with a step in the right direction! --------
 
   61    -641.6766003713      3.67E-04  Gap = 53.49 eV  Normal BFGS step
 
   ------------------- Entering Geometric Direct Minimization ------------------
   GDM::trust : actual energy change is       -1.015794168779394E-007
   GDM::trust : predicted energy change was   -3.557632510889571E-006
   GDM::trust : updated trust radius is        0.330000000000000     
   GDM:         diagonal hessian shift is      0.000000000000000E+000
   GDM::PreWSS: input subspace size is                 19
   GDM::PreWSS: working subspace size set to           18
   GDM::PrEWSS: # of linearly dependent vectors =            0
   GDM::PrEWSS: Max dev from orthonormality =   6.698568782992353E-012
   GDM::BFGS:   lowest Hinv e-value    0.206495210254615     
   GDM::BFGS:   highest Hinv e-value    4.69371847642300     
   GDM::      : max scaling in EWCs is          2.78642860235930     
   GDM::      : max rotation in step is       -2.150002827029097E-003
   GDM::        grad.step =  -1.634371827624933E-006
   ------- Leaving GDM -- hopefully with a step in the right direction! --------
 
   62    -641.6766004729      5.40E-04  Gap = 53.49 eV  Normal BFGS step
 
   ------------------- Entering Geometric Direct Minimization ------------------
   GDM::trust : actual energy change is       -7.729263415967580E-007
   GDM::trust : predicted energy change was   -2.451557741437399E-006
   GDM::trust : updated trust radius is        0.330000000000000     
   GDM:         diagonal hessian shift is      0.000000000000000E+000
   GDM::PreWSS: input subspace size is                 19
   GDM::PreWSS: working subspace size set to           18
   GDM::PrEWSS: # of linearly dependent vectors =            0
   GDM::PrEWSS: Max dev from orthonormality =   3.247402520500930E-011
   GDM::BFGS:   lowest Hinv e-value    0.203309557189726     
   GDM::BFGS:   highest Hinv e-value    4.96354805799654     
   GDM::      : max scaling in EWCs is          2.78328938692797     
   GDM::      : max rotation in step is       -4.855998634234439E-004
   GDM::        grad.step =  -2.507898756889770E-007
   ------- Leaving GDM -- hopefully with a step in the right direction! --------
 
   63    -641.6766012458      1.21E-04  Gap = 53.49 eV  Normal BFGS step
 
   ------------------- Entering Geometric Direct Minimization ------------------
   GDM::trust : actual energy change is       -9.292989489040338E-008
   GDM::trust : predicted energy change was   -3.761848135334655E-007
   GDM::trust : updated trust radius is        0.330000000000000     
   GDM:         diagonal hessian shift is      0.000000000000000E+000
   GDM::PreWSS: input subspace size is                 19
   GDM::PreWSS: working subspace size set to           18
   GDM::PrEWSS: # of linearly dependent vectors =            0
   GDM::PrEWSS: Max dev from orthonormality =   8.461117223523829E-012
   GDM::BFGS:   lowest Hinv e-value    0.198528569979618     
   GDM::BFGS:   highest Hinv e-value    4.62648845465726     
   GDM::      : max scaling in EWCs is          2.78293188808628     
   GDM::      : max rotation in step is       -5.277098470405212E-004
   GDM::        grad.step =  -9.166443573981564E-008
   ------- Leaving GDM -- hopefully with a step in the right direction! --------
 
   64    -641.6766013387      1.33E-04  Gap = 53.49 eV  Normal BFGS step
 
   ------------------- Entering Geometric Direct Minimization ------------------
   GDM::trust : actual energy change is       -6.003722319292137E-008
   GDM::trust : predicted energy change was   -1.374966536097235E-007
   GDM::trust : updated trust radius is        0.330000000000000     
   GDM:         diagonal hessian shift is      0.000000000000000E+000
   GDM::PreWSS: input subspace size is                 19
   GDM::PreWSS: working subspace size set to           18
   GDM::PrEWSS: # of linearly dependent vectors =            0
   GDM::PrEWSS: Max dev from orthonormality =   1.480530628650278E-011
   GDM::BFGS:   lowest Hinv e-value    0.192336650395279     
   GDM::BFGS:   highest Hinv e-value    4.82901409291701     
   GDM::      : max scaling in EWCs is          2.78306824693482     
   GDM::      : max rotation in step is       -6.603502729066314E-004
   GDM::        grad.step =  -6.693774116350330E-008
   ------- Leaving GDM -- hopefully with a step in the right direction! --------
 
   65    -641.6766013988      7.30E-05  Gap = 53.49 eV  Normal BFGS step
 
   ------------------- Entering Geometric Direct Minimization ------------------
   GDM::trust : actual energy change is       -3.506227130856132E-008
   GDM::trust : predicted energy change was   -1.004066117452550E-007
   GDM::trust : updated trust radius is        0.330000000000000     
   GDM:         diagonal hessian shift is      0.000000000000000E+000
   GDM::PreWSS: input subspace size is                 19
   GDM::PreWSS: working subspace size set to           18
   GDM::PrEWSS: # of linearly dependent vectors =            0
   GDM::PrEWSS: Max dev from orthonormality =   9.329523265044770E-012
   GDM::BFGS:   lowest Hinv e-value    0.188733452289483     
   GDM::BFGS:   highest Hinv e-value    5.95056447238831     
   GDM::      : max scaling in EWCs is          2.78327200090688     
   GDM::      : max rotation in step is       -3.679770547755912E-004
   GDM::        grad.step =  -2.772812151282270E-008
   ------- Leaving GDM -- hopefully with a step in the right direction! --------
 
   66    -641.6766014338      4.62E-05  Gap = -73.21 eV  Normal BFGS step
 
   ------------------- Entering Geometric Direct Minimization ------------------
   GDM::trust : actual energy change is       -1.619605427549686E-008
   GDM::trust : predicted energy change was   -4.159218226923406E-008
   GDM::trust : updated trust radius is        0.330000000000000     
   GDM:         diagonal hessian shift is      0.000000000000000E+000
   GDM::PreWSS: input subspace size is                 19
[...]
   GDM::trust : predicted energy change was   -4.743261966812761E-012
   GDM::trust : updated trust radius is        0.330000000000000     
   GDM:         diagonal hessian shift is      0.000000000000000E+000
   GDM::PreWSS: input subspace size is                 16
   GDM::PreWSS: working subspace size set to           16
   GDM::PrEWSS: # of linearly dependent vectors =           14
   GDM::PrEWSS: Max dev from orthonormality =   3.440097165463563E-012
   GDM::BFGS:   lowest Hinv e-value    0.184127983829638     
   GDM::BFGS:   highest Hinv e-value    5.89018077341575     
   GDM::      : max scaling in EWCs is          2.58072456909863     
   GDM::      : max rotation in step is        3.585330618615268E-006
   GDM::        grad.step =  -2.313020064655270E-012
   ------- Leaving GDM -- hopefully with a step in the right direction! --------
 
   18    -641.8131040910      4.16E-07  Gap = -97.45 eV  Normal BFGS step
 
   ------------------- Entering Geometric Direct Minimization ------------------
   GDM::trust : actual energy change is       -2.387423592153937E-012
   GDM::trust : predicted energy change was   -3.469530096982905E-012
   GDM::trust : updated trust radius is        0.330000000000000     
   GDM:         diagonal hessian shift is      0.000000000000000E+000
   GDM::PreWSS: input subspace size is                 17
   GDM::PreWSS: working subspace size set to           17
   GDM::PrEWSS: # of linearly dependent vectors =           15
   GDM::PrEWSS: Max dev from orthonormality =   2.663310544326336E-012
   GDM::BFGS:   lowest Hinv e-value    0.184141933096109     
   GDM::BFGS:   highest Hinv e-value    5.69041436978113     
   GDM::      : max scaling in EWCs is          2.58072545149940     
   GDM::      : max rotation in step is        6.300024789019574E-007
   GDM::        grad.step =  -2.771883933285308E-013
   ------- Leaving GDM -- hopefully with a step in the right direction! --------
 
   19    -641.8131040910      1.42E-07  Gap = -97.45 eV  Normal BFGS step
 
   ------------------- Entering Geometric Direct Minimization ------------------
   GDM::trust : actual energy change is        1.136868377216160E-012
   GDM::trust : predicted energy change was   -4.157825899927961E-013
   GDM::trust : updated trust radius is        0.108900000000000     
   GDM::WARNING energy changes are now smaller than effective accuracy.
   GDM::        calculation will continue, but THRESH should be increased
   GDM::        or SCF_CONVERGENCE decreased.
   GDM::        effective_thresh =   1.357373831389896E-009
   GDM:         diagonal hessian shift is      0.000000000000000E+000
   GDM::PreWSS: input subspace size is                 18
   GDM::PreWSS: working subspace size set to           18
   GDM::PrEWSS: # of linearly dependent vectors =           16
   GDM::PrEWSS: Max dev from orthonormality =   4.698208835862694E-012
   GDM::BFGS:   lowest Hinv e-value    0.184153044034056     
   GDM::BFGS:   highest Hinv e-value    5.69092787078945     
   GDM::      : max scaling in EWCs is          2.58072550182384     
   GDM::      : max rotation in step is       -4.517789528078147E-007
   GDM::        grad.step =  -1.141913732438141E-013
   ------- Leaving GDM -- hopefully with a step in the right direction! --------
 
   20    -641.8131040910      8.63E-08  Gap = -97.45 eV  Normal BFGS step
 
   ------------------- Entering Geometric Direct Minimization ------------------
   GDM::trust : actual energy change is       -7.958078640513122E-013
   GDM::trust : predicted energy change was   -1.712870598657212E-013
   GDM::trust : updated trust radius is        0.330000000000000     
   GDM:         diagonal hessian shift is      0.000000000000000E+000
   GDM::PreWSS: input subspace size is                 19
   GDM::PreWSS: working subspace size set to           18
   GDM::PrEWSS: # of linearly dependent vectors =           16
   GDM::PrEWSS: Max dev from orthonormality =   7.636252741249905E-014
   GDM::BFGS:   lowest Hinv e-value    0.188996981833009     
   GDM::BFGS:   highest Hinv e-value    5.71272026850189     
   GDM::      : max scaling in EWCs is          2.58072561043574     
   GDM::      : max rotation in step is        2.160421674674094E-007
   GDM::        grad.step =  -3.781068798720698E-014
   ------- Leaving GDM -- hopefully with a step in the right direction! --------
 
   21    -641.8131040910      5.41E-08  Gap = -97.45 eV  Normal BFGS step
 
   ------------------- Entering Geometric Direct Minimization ------------------
   GDM::trust : actual energy change is        0.000000000000000E+000
   GDM::trust : predicted energy change was   -5.671603198081050E-014
   GDM::trust : updated trust radius is        0.330000000000000     
   GDM:         diagonal hessian shift is      0.000000000000000E+000
   GDM::PreWSS: input subspace size is                 19
   GDM::PreWSS: working subspace size set to           18
   GDM::PrEWSS: # of linearly dependent vectors =           15
   GDM::PrEWSS: Max dev from orthonormality =   8.817079011347317E-014
   GDM::BFGS:   lowest Hinv e-value    0.248920436292710     
   GDM::BFGS:   highest Hinv e-value    5.96472674404801     
   GDM::      : max scaling in EWCs is          2.58072574449154     
   GDM::      : max rotation in step is        1.525026660584163E-007
   GDM::        grad.step =  -1.185053787176063E-014
   ------- Leaving GDM -- hopefully with a step in the right direction! --------
 
   22    -641.8131040910      3.18E-08  Gap = -97.45 eV  Normal BFGS step
 
   ------------------- Entering Geometric Direct Minimization ------------------
   GDM::trust : actual energy change is        3.410605131648481E-013
   GDM::trust : predicted energy change was   -1.777580680764095E-014
   GDM::trust : updated trust radius is        0.108900000000000     
   GDM::WARNING energy changes are now smaller than effective accuracy.
   GDM::        calculation will continue, but THRESH should be increased
   GDM::        or SCF_CONVERGENCE decreased.
   GDM::        effective_thresh =   1.357373831389896E-009
   GDM:         diagonal hessian shift is      0.000000000000000E+000
   GDM::PreWSS: input subspace size is                 19
   GDM::PreWSS: working subspace size set to           18
   GDM::PrEWSS: # of linearly dependent vectors =           14
   GDM::PrEWSS: Max dev from orthonormality =   3.603384951533783E-013
   GDM::BFGS:   lowest Hinv e-value    0.248525365636660     
   GDM::BFGS:   highest Hinv e-value    6.06040759229252     
   GDM::      : max scaling in EWCs is          2.58072578583594     
   GDM::      : max rotation in step is       -7.322310936753047E-008
   GDM::        grad.step =  -2.832290007926985E-015
   ------- Leaving GDM -- hopefully with a step in the right direction! --------
 
   23    -641.8131040910      1.44E-08  Gap = -97.45 eV  Normal BFGS step
 
   ------------------- Entering Geometric Direct Minimization ------------------
   GDM::trust : actual energy change is        5.684341886080801E-013
   GDM::trust : predicted energy change was   -4.248435011890479E-015
   GDM::trust : updated trust radius is        0.108900000000000     
   GDM::WARNING energy changes are now smaller than effective accuracy.
   GDM::        calculation will continue, but THRESH should be increased
   GDM::        or SCF_CONVERGENCE decreased.
   GDM::        effective_thresh =   1.357373831389896E-009
   GDM:         diagonal hessian shift is      0.000000000000000E+000
   GDM::PreWSS: input subspace size is                 19
   GDM::PreWSS: working subspace size set to           18
   GDM::PrEWSS: # of linearly dependent vectors =           13
   GDM::PrEWSS: Max dev from orthonormality =   4.612560333683291E-012
   GDM::BFGS:   lowest Hinv e-value    0.248536560520084     
   GDM::BFGS:   highest Hinv e-value    5.99794820907604     
   GDM::      : max scaling in EWCs is          2.58072585986501     
   GDM::      : max rotation in step is       -3.995959911155283E-008
   GDM::        grad.step =  -1.507201048987246E-015
   ------- Leaving GDM -- hopefully with a step in the right direction! --------
 
   24    -641.8131040910      9.44E-09 Convergence criterion met
 ---------------------------------------
 One-Electron    Energy = -1401.5167341053
 Total Coulomb   Energy =   569.7519895714
 Alpha Exchange  Energy =    -5.2740015465
 Beta  Exchange  Energy =    -5.1312505147
 DFT   Exchange  Energy =   -41.6112304772
 DFT Correlation Energy =    -2.5331686006
 Nuclear Repu.   Energy =   244.5012915819
 Nuclear Attr.   Energy = -1995.5271202310
 Kinetic         Energy =   594.0103861257
 <S^2> = 2.0143
 SCF time:  CPU 126.66 s  wall 15.71 s
 SCF   energy in the final basis set = -641.8131040910
 Total energy in the final basis set = -641.8131040910
 
 --------------------------------------------------------------
 
                    Orbital Energies (a.u.)
 --------------------------------------------------------------
 
 Alpha MOs
 -- Occupied --
-88.868 -19.166 -19.151  -7.940  -5.907  -5.897  -5.895  -2.048
 -2.039  -1.275  -1.259  -1.247  -1.244  -1.238  -1.225  -0.949
 -0.889  -0.641  -0.392  -0.385  -0.369  -0.359  -0.349  -0.337
 -0.257  -0.222  -0.203  -0.171  -0.168
 -- Virtual --
 -0.093  -0.082  -0.077  -0.073  -0.068  -0.062  -0.039  -0.030
 -0.014  -0.004   0.015   0.025   0.025   0.041   0.045   0.050
  0.078   0.086   0.096   0.104   0.112   0.119   0.121   0.155
  0.164   0.183   0.186   0.202   0.213   0.231   0.236   0.253
  0.258   0.261   0.267   0.270   0.284   0.295   0.323   0.330
  0.353   0.390   0.468   0.518   0.547   0.558   0.631   0.730
  0.794   0.812   0.878   0.912   1.016   1.163   1.217   1.249
  1.274   1.291   1.294   1.657   1.766   1.792   1.803   1.810
  1.818   1.833   1.866   1.871   1.897   1.931   2.339   8.878
 11.480
 
 Beta MOs
 -- Occupied --
-88.868 -19.165 -19.151  -7.940  -5.907  -5.897  -5.895  -2.042
 -2.011  -1.269  -1.251  -1.239  -1.228  -1.193  -1.192  -0.947
 -0.890  -0.640  -0.392  -0.384  -0.366  -0.359  -0.347  -0.336
 -0.257  -0.216  -0.184
 -- Virtual --
 -0.096  -0.088  -0.084  -0.069  -0.058  -0.052  -0.046  -0.042
 -0.030  -0.023  -0.006   0.003   0.023   0.027   0.029   0.043
  0.049   0.053   0.081   0.092   0.104   0.105   0.115   0.123
  0.128   0.160   0.167   0.192   0.198   0.206   0.225   0.233
  0.242   0.257   0.262   0.266   0.272   0.277   0.287   0.299
  0.326   0.333   0.355   0.396   0.472   0.518   0.547   0.559
  0.632   0.732   0.795   0.813   0.878   0.913   1.016   1.162
  1.219   1.249   1.273   1.292   1.294   1.657   1.767   1.792
  1.802   1.809   1.818   1.834   1.867   1.872   1.897   1.933
  2.340   8.881  11.481
 --------------------------------------------------------------
 
          Ground-State Mulliken Net Atomic Charges

     Atom                 Charge (a.u.)    Spin (a.u.)
  --------------------------------------------------------
      1 Zr                    0.566653       1.690560
      2 Zr                    1.033802       0.265294
      3 O                    -0.660819       0.047065
      4 O                    -0.877505      -0.010633
      5 S                    -0.062130       0.007715
  --------------------------------------------------------
  Sum of atomic charges =     0.000000
  Sum of spin   charges =     2.000000

 -----------------------------------------------------------------
                    Cartesian Multipole Moments
 -----------------------------------------------------------------
    Charge (ESU x 10^10)
                 0.0000
    Dipole Moment (Debye)
         X      -4.5611      Y       0.6606      Z      -1.4521
       Tot       4.8320
    Quadrupole Moments (Debye-Ang)
        XX     -76.4378     XY      -9.5841     YY     -66.8040
        XZ      -7.9125     YZ       2.9538     ZZ     -70.0892
    Octopole Moments (Debye-Ang^2)
       XXX     -80.0925    XXY      15.1226    XYY      -9.9072
       YYY       8.7157    XXZ      -9.2612    XYZ      -3.5094
       YYZ      -9.8483    XZZ     -14.7360    YZZ       1.5110
       ZZZ     -38.9932
    Hexadecapole Moments (Debye-Ang^3)
      XXXX   -1402.6906   XXXY     -27.9556   XXYY    -279.5852
      XYYY     -37.4781   YYYY    -318.4483   XXXZ      -1.3416
      XXYZ       0.3708   XYYZ      -3.1127   YYYZ     -14.5070
      XXZZ    -272.7841   XYZZ      -0.5781   YYZZ     -84.6278
      XZZZ      17.5933   YZZZ     -12.2143   ZZZZ    -208.3832
 -----------------------------------------------------------------
 Calculating analytic gradient of the SCF energy
 Gradient of SCF Energy
            1           2           3           4           5
    1  -0.0000725   0.0000903   0.0000688  -0.0000304  -0.0000562
    2  -0.0000353   0.0001264  -0.0000037   0.0000393  -0.0001266
    3  -0.0000040   0.0000142  -0.0000505  -0.0000356   0.0000759
 Max gradient component =       1.266E-04
 RMS gradient           =       6.675E-05
 Gradient time:  CPU 16.60 s  wall 2.65 s
 Geometry Optimization Parameters
   NAtoms,    NIC,     NZ,  NCons,   NDum,   NFix, NCnnct, MaxDiis
        5      34       0       0       0       0       0       0

 Cartesian Hessian Update
 Hessian Updated using BFGS Update


** GEOMETRY OPTIMIZATION IN DELOCALIZED INTERNAL COORDINATES **
   Searching for a Minimum

   Optimization Cycle:  20

                       Coordinates (Angstroms)
     ATOM                X               Y               Z
      1  Zr       -1.8231909636    0.4783840673    0.4487893028
      2  Zr        0.6612644509   -0.7172174484   -0.2403855243
      3  O         2.0461084804   -0.4259083335    1.1174578377
      4  O        -1.3243850397   -1.2902809696   -0.0018488217
      5  S         2.5261930720    0.8408426842   -0.0061127944
   Point Group: c1    Number of degrees of freedom:     9


   Energy is   -641.813104091

 Hessian Updated using BFGS Update

  9 Hessian modes will be used to form the next step
  Hessian Eigenvalues:
     0.002814    0.013867    0.043413    0.056322    0.128134    0.161396
     0.189086    0.262441    0.339369

 Minimum Search - Taking Simple RFO Step
 Searching for Lamda that Minimizes Along All modes
 Value Taken    Lamda =   0.00000000
 Step Taken.  Stepsize is  0.004743

                             Maximum     Tolerance    Cnvgd?
         Gradient           0.000144      0.000300     YES
         Displacement       0.002416      0.001200      NO
         Energy change      0.000000      0.000001     YES


                       Distance Matrix (Angstroms)
             Zr(  1)   Zr(  2)   O (  3)   O (  4)
   Zr(  2)  2.841996
   O (  3)  4.029434  1.961222
   O (  4)  1.892104  2.080410  3.655163
   S (  5)  4.388104  2.441392  1.759986  4.400984
 
 Final energy is   -641.813104090960     


 ******************************
 **  OPTIMIZATION CONVERGED  **
 ******************************

                       Coordinates (Angstroms)
     ATOM                X               Y               Z
      1  Zr       -1.8231909636    0.4783840673    0.4487893028
      2  Zr        0.6612644509   -0.7172174484   -0.2403855243
      3  O         2.0461084804   -0.4259083335    1.1174578377
      4  O        -1.3243850397   -1.2902809696   -0.0018488217
      5  S         2.5261930720    0.8408426842   -0.0061127944

Z-matrix Print:
$molecule
0 3
Zr
O  1 1.961222
S  2 1.759986 1 81.809075
O  1 2.080410 2 129.455716 3 144.521969 0
Zr 4 1.892104 1 91.228438 2 -80.213392 0
$end

 
 --------------------------------------------------------------
 
                    Orbital Energies (a.u.)
 --------------------------------------------------------------
 
 Alpha MOs
 -- Occupied --
-88.868 -19.166 -19.151  -7.940  -5.907  -5.897  -5.895  -2.048
 -2.039  -1.275  -1.259  -1.247  -1.244  -1.238  -1.225  -0.949
 -0.889  -0.641  -0.392  -0.385  -0.369  -0.359  -0.349  -0.337
 -0.257  -0.222  -0.203  -0.171  -0.168
 -- Virtual --
 -0.093  -0.082  -0.077  -0.073  -0.068  -0.062  -0.039  -0.030
 -0.014  -0.004   0.015   0.025   0.025   0.041   0.045   0.050
  0.078   0.086   0.096   0.104   0.112   0.119   0.121   0.155
  0.164   0.183   0.186   0.202   0.213   0.231   0.236   0.253
  0.258   0.261   0.267   0.270   0.284   0.295   0.323   0.330
  0.353   0.390   0.468   0.518   0.547   0.558   0.631   0.730
  0.794   0.812   0.878   0.912   1.016   1.163   1.217   1.249
  1.274   1.291   1.294   1.657   1.766   1.792   1.803   1.810
  1.818   1.833   1.866   1.871   1.897   1.931   2.339   8.878
 11.480
 
 Beta MOs
 -- Occupied --
-88.868 -19.165 -19.151  -7.940  -5.907  -5.897  -5.895  -2.042
 -2.011  -1.269  -1.251  -1.239  -1.228  -1.193  -1.192  -0.947
 -0.890  -0.640  -0.392  -0.384  -0.366  -0.359  -0.347  -0.336
 -0.257  -0.216  -0.184
 -- Virtual --
 -0.096  -0.088  -0.084  -0.069  -0.058  -0.052  -0.046  -0.042
 -0.030  -0.023  -0.006   0.003   0.023   0.027   0.029   0.043
  0.049   0.053   0.081   0.092   0.104   0.105   0.115   0.123
  0.128   0.160   0.167   0.192   0.198   0.206   0.225   0.233
  0.242   0.257   0.262   0.266   0.272   0.277   0.287   0.299
  0.326   0.333   0.355   0.396   0.472   0.518   0.547   0.559
  0.632   0.732   0.795   0.813   0.878   0.913   1.016   1.162
  1.219   1.249   1.273   1.292   1.294   1.657   1.767   1.792
  1.802   1.809   1.818   1.834   1.867   1.872   1.897   1.933
  2.340   8.881  11.481
 --------------------------------------------------------------
 
          Ground-State Mulliken Net Atomic Charges

     Atom                 Charge (a.u.)    Spin (a.u.)
  --------------------------------------------------------
      1 Zr                    0.566653       1.690560
      2 Zr                    1.033802       0.265294
      3 O                    -0.660819       0.047065
      4 O                    -0.877505      -0.010633
      5 S                    -0.062130       0.007715
  --------------------------------------------------------
  Sum of atomic charges =     0.000000
  Sum of spin   charges =     2.000000

 -----------------------------------------------------------------
                    Cartesian Multipole Moments
 -----------------------------------------------------------------
    Charge (ESU x 10^10)
                 0.0000
    Dipole Moment (Debye)
         X      -4.5611      Y       0.6606      Z      -1.4521
       Tot       4.8320
    Quadrupole Moments (Debye-Ang)
        XX     -76.4378     XY      -9.5841     YY     -66.8040
        XZ      -7.9125     YZ       2.9538     ZZ     -70.0892
    Octopole Moments (Debye-Ang^2)
       XXX     -80.0925    XXY      15.1226    XYY      -9.9072
       YYY       8.7157    XXZ      -9.2612    XYZ      -3.5094
       YYZ      -9.8483    XZZ     -14.7360    YZZ       1.5110
       ZZZ     -38.9932
    Hexadecapole Moments (Debye-Ang^3)
      XXXX   -1402.6906   XXXY     -27.9556   XXYY    -279.5852
      XYYY     -37.4781   YYYY    -318.4483   XXXZ      -1.3416
      XXYZ       0.3708   XYYZ      -3.1127   YYYZ     -14.5070
      XXZZ    -272.7841   XYZZ      -0.5781   YYZZ     -84.6278
      XZZZ      17.5933   YZZZ     -12.2143   ZZZZ    -208.3832
 -----------------------------------------------------------------
Archival summary:
1\1\hpc3455\OPT\ProcedureUnspecified\BasisUnspecified\r212(+,3)\liqiuy\FriJan1719:29:362020FriJan1719:29:362020\0\\#,OPT,ProcedureUnspecified,BasisUnspecified,\\56,3\Zr\O,1,1.96122\S,2,1.75999,1,81.8091\O,1,2.08041,2,129.456,3,144.522,0\Zr,4,1.8921,1,91.2284,2,-80.2134,0\\\@

 Total job time:  460.84s(wall), 3487.91s(cpu) 
 Fri Jan 17 19:29:36 2020

        *************************************************************
        *                                                           *
        *  Thank you very much for using Q-Chem.  Have a nice day.  *
        *                                                           *
        *************************************************************


0 sent ACK to 0 
now end server 0 ... 
cleanup process ... done
