
Running Job 1 of 2 ZrOx.in
qchem ZrOx.in_30655.0 /tmp/5732614.priya/ZrOx.save/ 1
/usr/usc/qchem/4.4/bin/mpi/mpirun_qchem -machinefile /usr/usc/qchem/4.4/bin/mpi/machines -np 1 /usr/usc/qchem/4.4/exe/qcprog.exe ZrOx.in_30655.0 /tmp/5732614.priya/ZrOx.save/

Process 0 of 1 is on hpc3916.hpcc.usc.edu - thread support 0
initial socket setup ...start
initial socket setup ...done 
now start server 0 ... 
Check license passed

                  Welcome to Q-Chem
     A Quantum Leap Into The Future Of Chemistry


 Q-Chem 4.4, Q-Chem, Inc., Pleasanton, CA (2016)

 Y. Shao,  Z. Gan,  E. Epifanovsky,  A. T. B. Gilbert,  M. Wormit,  
 J. Kussmann,  A. W. Lange,  A. Behn,  J. Deng,  X. Feng,  D. Ghosh,  
 M. Goldey,  P. R. Horn,  L. D. Jacobson,  I. Kaliman,  F.Rob,  
 R. Z. Khaliullin,  T. Kus,  A. Landau,  J. Liu,  E. I. Proynov,  Y. M. Rhee,  
 R. M. Richard,  M. A. Rohrdanz,  R. P. Steele,  E. J. Sundstrom,  
 H. L. Woodcock III,  P. M. Zimmerman,  D. Zuev,  B. Albrecht,  E. Alguire,  
 B. Austin,  S. A. Baeppler,  G. J. O. Beran,  Y. A. Bernard,  E. Berquist,  
 K. Brandhorst,  K. B. Bravaya,  S. T. Brown,  D. Casanova,  C.-M. Chang,  
 Y. Chen,  S. H. Chien,  K. D. Closser,  M. P. Coons,  D. L. Crittenden,  
 S. Dasgupta,  M. Diedenhofen,  R. A. DiStasio Jr.,  H. Do,  A. D. Dutoi,  
 R. G. Edgar,  P.-T. Fang,  S. Fatehi,  Q. Feng,  L. Fusti-Molnar,  
 A. Ghysels,  A. Golubeva-Zadorozhnaya,  J. Gomes,  A. Gunina,  
 M. W. D. Hanson-Heine,  P. H. P. Harbach,  A. W. Hauser,  E. G. Hohenstein,  
 Z. C. Holden,  K. Hui,  T.-C. Jagau,  H. Ji,  B. Kaduk,  K. Khistyaev,  
 Jaehoon Kim,  Jihan Kim,  R. A. King,  P. Klunzinger,  D. Kosenkov,  
 T. Kowalczyk,  C. M. Krauter,  A. Kunitsa,  K. U. Lao,  A. Laurent,  
 K. V. Lawler,  D. Lefrancois,  S. Lehtola,  S. V. Levchenko,  C. Y. Lin,  
 Y.-S. Lin,  F. Liu,  E. Livshits,  R. C. Lochan,  A. Luenser,  P. Manohar,  
 S. F. Manzer,  S.-P. Mao,  Y. Mao,  N. Mardirossian,  A. V. Marenich,  
 L. A. Martinez-Martinez,  S. A. Maurer,  N. J. Mayhall,  J.-M. Mewes,  
 A. F. Morrison,  K. Nanda,  C. M. Oana,  R. Olivares-Amaya,  D. P. O'Neill,  
 J. A. Parkhill,  T. M. Perrine,  R. Peverati,  P. A. Pieniazek,  F. Plasser,  
 A. Prociuk,  D. R. Rehn,  E. Rosta,  N. J. Russ,  N. Sergueev,  
 S. M. Sharada,  S. Sharma,  D. W. Small,  A. Sodt,  T. Stauch,  T. Stein,  
 D. Stuck,  Y.-C. Su,  A. J. W. Thom,  T. Tsuchimochi,  L. Vogt,  O. Vydrov,  
 T. Wang,  M. A. Watson,  J. Wenzel,  A. White,  C. F. Williams,  
 V. Vanovschi,  S. Yeganeh,  S. R. Yost,  Z.-Q. You,  I. Y. Zhang,  X. Zhang,  
 Y. Zhao,  B. R. Brooks,  G. K. L. Chan,  D. M. Chipman,  C. J. Cramer,  
 W. A. Goddard III,  M. S. Gordon,  W. J. Hehre,  A. Klamt,  
 H. F. Schaefer III,  M. W. Schmidt,  C. D. Sherrill,  D. G. Truhlar,  
 A. Warshel,  X. Xu,  A. Aspuru-Guzik,  R. Baer,  A. T. Bell,  N. A. Besley,  
 J.-D. Chai,  A. Dreuw,  B. D. Dunietz,  T. R. Furlani,  S. R. Gwaltney,  
 C.-P. Hsu,  Y. Jung,  J. Kong,  D. S. Lambrecht,  W. Liang,  C. Ochsenfeld,  
 V. A. Rassolov,  L. V. Slipchenko,  J. E. Subotnik,  T. Van Voorhis,  
 J. M. Herbert,  A. I. Krylov,  P. M. W. Gill,  M. Head-Gordon

 Contributors to earlier versions of Q-Chem not listed above: 
 R. D. Adamson,  J. Baker,  E. F. C. Byrd,  A. K. Chakraborty,  C.-L. Cheng,  
 H. Dachsel,  R. J. Doerksen,  G. Hawkins,  A. Heyden,  S. Hirata,  
 G. Kedziora,  F. J. Keil,  C. Kelley,  P. P. Korambath,  W. Kurlancheek,  
 A. M. Lee,  M. S. Lee,  D. Liotard,  I. Lotan,  P. E. Maslen,  N. Nair,  
 D. Neuhauser,  R. Olson,  B. Peters,  J. Ritchie,  N. E. Schultz,  
 N. Shenvi,  A. C. Simmonett,  K. S. Thanthiriwatte,  Q. Wu,  W. Zhang

 Please cite Q-Chem as follows:
 Y. Shao et al., Mol. Phys. 113, 184-215 (2015)
 DOI: 10.1080/00268976.2014.952696

 Q-Chem 4.4.1 for Intel X86 Linux

 Parts of Q-Chem use Armadillo 5.200.1 (Boston Tea Smuggler).
 http://arma.sourceforge.net/

 Q-Chem begins on Fri Jan 17 19:23:05 2020  

Host: 
0

     Scratch files written to /tmp/5732614.priya/ZrOx.save//
 Jul2716 11668_ 21447  21445 5558   
 Parallel job on  1  processors
Processing $rem in /usr/usc/qchem/4.4/config/preferences.
 MEM_TOTAL  2000 

Checking the input file for inconsistencies... 	...done.

--------------------------------------------------------------
User input:
--------------------------------------------------------------
$comment
--------------------------------------------------------
A SINGLE POINT DFT CALCULATION WITH BASIS SET PROJECTION
--------------------------------------------------------
$end

$molecule
0 3
Zr -1.35170 0.27396 0.12204
Zr 0.70415 -0.13172 -0.43042
O 2.12520 -0.29753 0.95577
O -0.75491 -1.43002 0.33681
O 2.07494 0.97501 0.30115
$end

$rem
JOBTYPE   SP
METHOD   B3LYP
BASIS   GEN
ECP   GEN
MAX_SCF_CYCLES   200
SCF_CONVERGENCE 8
SCF_PRINT 1
PDB_PRINT 2
THRESH 14
VARTHRESH 14
INCDFT FALSE
SYMMETRY False
Sym_ignore True
SCF_ALGORITHM GDM
XC_GRID 000128000302
DFT_D           EMPIRICAL_GRIMME3
DFT_D3_S6       1000
DFT_D3_RS6     1261
DFT_D3_S8      1703
DFT_D3_3BODY    FALSE
$end

$basis
O
6-31+G**
****
S
6-31+G**
****
Zr
LanL2DZ
****
$end

$ecp
Zr
LanL2DZ
****
$end

--------------------------------------------------------------
 ----------------------------------------------------------------
             Standard Nuclear Orientation (Angstroms)
    I     Atom           X                Y                Z
 ----------------------------------------------------------------
    1      Zr     -1.3517000000     0.2739600000     0.1220400000
    2      Zr      0.7041500000    -0.1317200000    -0.4304200000
    3      O       2.1252000000    -0.2975300000     0.9557700000
    4      O      -0.7549100000    -1.4300200000     0.3368100000
    5      O       2.0749400000     0.9750100000     0.3011500000
 ----------------------------------------------------------------
 Nuclear Repulsion Energy =   211.4805494871 hartrees
 There are       25 alpha and       23 beta electrons

 Q-Chem warning in module /home/scratch/svnadmin/11668_zgan/qchem/forms1/BasisType.C, line 1419:

 Setting pure/cartesian flag to 2111 for general basis


 Requested basis set is non-standard
 There are 31 shells and 98 basis functions

 Total QAlloc Memory Limit   2000 MB
 Mega-Array Size        61 MB
 MEM_STATIC part        62 MB

                       Distance Matrix (Angstroms)
             Zr(  1)   Zr(  2)   O (  3)   O (  4)
   Zr(  2)  2.167097
   O (  3)  3.620848  1.992084
   O (  4)  1.818195  2.098352  3.156054
   O (  5)  3.502201  1.907645  1.431926  3.713959
 
 A cutoff of  1.0D-14 yielded    490 shell pairs
 There are      4973 function pairs (      5720 Cartesian)
 
 -------------------------------------------------------
 OpenMP Integral Computing Module                       
 Release: version 1.0, May 2013, Q-Chem Inc. Pittsburgh 
 -------------------------------------------------------
 Integral Job Info:
 Integral job number is                      11
 Integral operator is                         1
 short-range coefficients                     0
 long-range coefficients              100000000
 Omega coefficients                           0
 if combine SR and LR in K                    0
 Integral screening is                        0
 Integral computing path is                   2
 max size of driver memory is            800000
 size of driver memory is                593474
 size of scratch memory is             11771240
 max col of scratch BK array               1296
 max len of scratch array in speh3          155
 max len of scratch index in speh4           18
 max int batch size is                      520
 min int batch size is                       52
 fixed nKL is                                52
 max L of basis functions is                  2
 order of int derivative is                   0
 number of shells is                         31
 number of basis is                         105
 number of cartesian basis is               105
 number of contracted shell pairs           490
 number of primitive shell pairs           2340
 maxK2 (contraction) of shell pair           36
 max number of K2 of shell pair               1
 max number of CS2 of shell pair             30
 max number of PS2 of shell pair            144
 mem total for path MDJ                   23422
 -------------------------------------------------------
 Requested basis set is non-standard
 Compound shells will be simplified
 There are 40 shells and 98 basis functions
 A cutoff of  1.0D-14 yielded    812 shell pairs
 There are      4946 function pairs (      5693 Cartesian)
 Smallest overlap matrix eigenvalue = 7.99E-04

 Scale SEOQF with 1.000000e-01/1.000000e-01/1.000000e-01

 Standard Electronic Orientation quadrupole field applied
 Nucleus-field energy     =     0.0000000043 hartrees
 Guess MOs from core Hamiltonian diagonalization
 An unrestricted hybrid HF-DFT SCF calculation will be
 performed using Geometric Direct Minimization
 Exchange:     0.2000 Hartree-Fock + 0.0800 Slater + 0.7200 B88
 Correlation:  0.1900 VWN1RPA + 0.8100 LYP
 Using Euler-Maclaurin-Lebedev (128,302) quadrature formula
 Dispersion:   Grimme D3
 SCF converges when RMS gradient is below 1.0E-08
 Maximum number of minimization steps = 200
 using 12 threads for integral computing 
 -------------------------------------------------------
 OpenMP BLAS3 based DFT computing Module                
 Release: version 1.0, May 2013, Q-Chem Inc. Pittsburgh 
 -------------------------------------------------------
 
   ------------------- Entering Geometric Direct Minimization ------------------
   GDM:         diagonal hessian shift is      0.000000000000000E+000
   GDM::PreWSS: input subspace size is                  1
   GDM::PreWSS: working subspace size set to            1
   GDM::PrEWSS: # of linearly dependent vectors =            0
   GDM::PrEWSS: Max dev from orthonormality =   0.000000000000000E+000
   GDM::BFGS:   lowest Hinv e-value     1.00000000000000     
   GDM::BFGS:   highest Hinv e-value    1.00000000000000     
   GDM::      : max scaling in EWCs is          1.41421356237309     
   GDM::      : max rotation in step is        8.012294474252495E-002
   GDM::        grad.step =   -3.33347916919869     
   ------- Leaving GDM -- hopefully with a step in the right direction! --------
 
 ---------------------------------------
  Cycle       Energy        RMS Gradient
 ---------------------------------------
    1    -288.0738469338      1.91E+00  Gap = -31.42 eV  Descent step
 
   ------------------- Entering Geometric Direct Minimization ------------------
   GDM::trust : actual energy change is        -3.29014370585617     
   GDM::trust : predicted energy change was   -0.163350000000000     
   GDM::trust : updated trust radius is        0.330000000000000     
   GDM::search:  On step            1 .  The current bracket is:
       left   : x =  0.0000E+00, e =      -288.0738469338, g = -0.9897E+01
       current: x =  0.3368E+00, e =      -291.3639906396, g = -0.9589E+01
       right  : x =  0.1000E+04, e =      1000.0000000000, g =  0.1000E+04
       next   : x =  0.3368E+01
   GDM::      : max rotation in step is        0.801229447425249     
   ------- Leaving GDM -- hopefully with a step in the right direction! --------
 
    2    -291.3639906396      6.72E-01  Gap = 88.10 eV  Line search: understep
 
   ------------------- Entering Geometric Direct Minimization ------------------
   GDM::trust : actual energy change is        -16.9001443098369     
   GDM::trust : predicted energy change was   -0.163350000000000     
   GDM::trust : updated trust radius is        0.330000000000000     
   GDM:         diagonal hessian shift is      0.000000000000000E+000
   GDM::PreWSS: input subspace size is                  2
   GDM::PreWSS: working subspace size set to            2
   GDM::PrEWSS: # of linearly dependent vectors =            0
   GDM::PrEWSS: Max dev from orthonormality =   2.199629367538591E-015
   GDM::BFGS:   lowest Hinv e-value    0.611780832867756     
   GDM::BFGS:   highest Hinv e-value    1.26928820940581     
   GDM::      : max scaling in EWCs is          2.82842712474619     
   GDM::      : max rotation in step is       -0.251694143124099     
   GDM::        grad.step =   -2.28706148613781     
   ------- Leaving GDM -- hopefully with a step in the right direction! --------
 
    3    -304.9739912436      2.21E+00  Gap = 88.10 eV  Descent step
 
   ------------------- Entering Geometric Direct Minimization ------------------
   GDM::trust : actual energy change is        -2.20830735411681     
   GDM::trust : predicted energy change was   -0.165453145528099     
   GDM::trust : updated trust radius is        0.330000000000000     
   GDM:         diagonal hessian shift is      0.000000000000000E+000
   GDM::PreWSS: input subspace size is                  3
   GDM::PreWSS: working subspace size set to            3
   GDM::PrEWSS: # of linearly dependent vectors =            0
   GDM::PrEWSS: Max dev from orthonormality =   3.412027604898782E-014
   GDM::BFGS:   lowest Hinv e-value    0.468579060316771     
   GDM::BFGS:   highest Hinv e-value    2.76413735840522     
   GDM::      : max scaling in EWCs is          2.82842712474619     
   GDM::      : max rotation in step is        0.519114318419801     
   GDM::        grad.step =   -1.98128084363191     
   ------- Leaving GDM -- hopefully with a step in the right direction! --------
 
    4    -307.1822985977      3.34E+00  Gap = 88.10 eV  Descent step
 
   ------------------- Entering Geometric Direct Minimization ------------------
   GDM::trust : actual energy change is        -1.85893137346312     
   GDM::trust : predicted energy change was   -0.152316647907064     
   GDM::trust : updated trust radius is        0.330000000000000     
   GDM:         diagonal hessian shift is      0.000000000000000E+000
   GDM::PreWSS: input subspace size is                  4
   GDM::PreWSS: working subspace size set to            4
   GDM::PrEWSS: # of linearly dependent vectors =            0
   GDM::PrEWSS: Max dev from orthonormality =   2.556635458894618E-014
   GDM::BFGS:   lowest Hinv e-value    0.433274796226917     
   GDM::BFGS:   highest Hinv e-value    3.05873059721786     
   GDM::      : max scaling in EWCs is          2.82842712474619     
   GDM::      : max rotation in step is        0.198835989802238     
   GDM::        grad.step =   -1.47516604064252     
   ------- Leaving GDM -- hopefully with a step in the right direction! --------
 
    5    -309.0412299712      9.52E-01  Gap = 88.10 eV  Descent step
 
   ------------------- Entering Geometric Direct Minimization ------------------
   GDM::trust : actual energy change is        -1.41914088139413     
   GDM::trust : predicted energy change was   -0.162430198716466     
   GDM::trust : updated trust radius is        0.330000000000000     
   GDM:         diagonal hessian shift is      0.000000000000000E+000
   GDM::PreWSS: input subspace size is                  5
   GDM::PreWSS: working subspace size set to            5
   GDM::PrEWSS: # of linearly dependent vectors =            0
   GDM::PrEWSS: Max dev from orthonormality =   5.044228923445360E-013
   GDM::BFGS:   lowest Hinv e-value    0.337690102364440     
   GDM::BFGS:   highest Hinv e-value    3.42699276372807     
   GDM::      : max scaling in EWCs is          2.82842712474619     
   GDM::      : max rotation in step is        9.255098589150462E-002
   GDM::        grad.step =   -1.25943356125740     
   ------- Leaving GDM -- hopefully with a step in the right direction! --------
 
    6    -310.4603708526      5.26E-01  Gap = 88.10 eV  Descent step
 
   ------------------- Entering Geometric Direct Minimization ------------------
   GDM::trust : actual energy change is        -1.20413127535915     
   GDM::trust : predicted energy change was   -0.150203141170782     
   GDM::trust : updated trust radius is        0.330000000000000     
   GDM::search:  On step            1 .  The current bracket is:
       left   : x =  0.0000E+00, e =      -310.4603708526, g = -0.3136E+01
       current: x =  0.4016E+00, e =      -311.6645021280, g = -0.2825E+01
       right  : x =  0.1000E+04, e =      1000.0000000000, g =  0.1000E+04
       next   : x =  0.4016E+01
   GDM::      : max rotation in step is        0.925509858915046     
   ------- Leaving GDM -- hopefully with a step in the right direction! --------
 
    7    -311.6645021280      4.96E-01  Gap = 88.10 eV  Line search: understep
 
   ------------------- Entering Geometric Direct Minimization ------------------
   GDM::trust : actual energy change is         3.71057018595428     
   GDM::trust : predicted energy change was   -0.150203141170782     
   GDM::trust : updated trust radius is        0.108900000000000     
   GDM::search:  On step            2 .  The current bracket is:
       left   : x =  0.4016E+00, e =      -311.6645021280, g = -0.2825E+01
       current: x =  0.4016E+01, e =      -306.7498006666, g =  0.5637E+01
       right  : x =  0.1000E+04, e =         0.0000000000, g =  0.0000E+00
       next   : x =  0.1220E+01
   GDM::      : max rotation in step is        0.281131403387856     
   ------- Leaving GDM -- hopefully with a step in the right direction! --------
 
    8    -306.7498006666      5.60E-01  Gap = 88.10 eV  Line search: overstep
 
   ------------------- Entering Geometric Direct Minimization ------------------
   GDM::trust : actual energy change is        -3.02381280927455     
   GDM::trust : predicted energy change was   -0.150203141170782     
   GDM::trust : updated trust radius is        0.108900000000000     
   GDM:         diagonal hessian shift is      0.000000000000000E+000
   GDM::PreWSS: input subspace size is                  6
   GDM::PreWSS: working subspace size set to            6
   GDM::PrEWSS: # of linearly dependent vectors =            0
   GDM::PrEWSS: Max dev from orthonormality =   1.502568902633783E-012
   GDM::BFGS:   lowest Hinv e-value    0.337031709523686     
   GDM::BFGS:   highest Hinv e-value    4.11779133841677     
   GDM::      : max scaling in EWCs is          2.82842712474619     
   GDM::      : max rotation in step is        5.835022273492938E-002
   GDM::        grad.step =  -0.341144424619755     
   ------- Leaving GDM -- hopefully with a step in the right direction! --------
 
    9    -313.4841836619      5.93E-01  Gap = 88.10 eV  Descent step
 
   ------------------- Entering Geometric Direct Minimization ------------------
   GDM::trust : actual energy change is       -0.339822923106510     
   GDM::trust : predicted energy change was   -1.728782532682493E-002
   GDM::trust : updated trust radius is        0.330000000000000     
   GDM::search:  On step            1 .  The current bracket is:
       left   : x =  0.0000E+00, e =      -313.4841836619, g = -0.1681E+01
       current: x =  0.2030E+00, e =      -313.8240065850, g = -0.1663E+01
       right  : x =  0.1000E+04, e =      1000.0000000000, g =  0.1000E+04
       next   : x =  0.2030E+01
   GDM::      : max rotation in step is        0.583502227349294     
   ------- Leaving GDM -- hopefully with a step in the right direction! --------
 
   10    -313.8240065850      1.72E-01  Gap = 88.10 eV  Line search: understep
 
   ------------------- Entering Geometric Direct Minimization ------------------
   GDM::trust : actual energy change is        -1.90245378420167     
   GDM::trust : predicted energy change was   -1.728782532682493E-002
   GDM::trust : updated trust radius is        0.330000000000000     
   GDM:         diagonal hessian shift is      0.000000000000000E+000
   GDM::PreWSS: input subspace size is                  7
   GDM::PreWSS: working subspace size set to            7
   GDM::PrEWSS: # of linearly dependent vectors =            0
   GDM::PrEWSS: Max dev from orthonormality =   3.549209537379028E-013
   GDM::BFGS:   lowest Hinv e-value    0.288246962100137     
   GDM::BFGS:   highest Hinv e-value    5.01809321641931     
   GDM::      : max scaling in EWCs is          2.82842712474619     
   GDM::      : max rotation in step is       -0.173398624837891     
   GDM::        grad.step =  -0.988092746841839     
   ------- Leaving GDM -- hopefully with a step in the right direction! --------
 
   11    -315.3866374461      9.09E-01  Gap = 88.10 eV  Descent step
 
   ------------------- Entering Geometric Direct Minimization ------------------
   GDM::trust : actual energy change is       -0.820123965199741     
   GDM::trust : predicted energy change was   -0.220250125306595     
   GDM::trust : updated trust radius is        0.330000000000000     
   GDM:         diagonal hessian shift is      0.000000000000000E+000
   GDM::PreWSS: input subspace size is                  8
   GDM::PreWSS: working subspace size set to            8
   GDM::PrEWSS: # of linearly dependent vectors =            0
   GDM::PrEWSS: Max dev from orthonormality =   1.479580347130138E-012
   GDM::BFGS:   lowest Hinv e-value    0.185482005153703     
   GDM::BFGS:   highest Hinv e-value    4.75439709917632     
   GDM::      : max scaling in EWCs is          2.82842712474619     
   GDM::      : max rotation in step is        0.223190671247071     
   GDM::        grad.step =  -0.707141660928819     
   ------- Leaving GDM -- hopefully with a step in the right direction! --------
 
   12    -316.2067614113      5.12E-01  Gap = 88.10 eV  Descent step
 
   ------------------- Entering Geometric Direct Minimization ------------------
   GDM::trust : actual energy change is       -0.656096001388050     
   GDM::trust : predicted energy change was   -0.163341425556979     
   GDM::trust : updated trust radius is        0.330000000000000     
   GDM:         diagonal hessian shift is      0.000000000000000E+000
   GDM::PreWSS: input subspace size is                  9
   GDM::PreWSS: working subspace size set to            9
   GDM::PrEWSS: # of linearly dependent vectors =            0
   GDM::PrEWSS: Max dev from orthonormality =   4.300448885885544E-013
   GDM::BFGS:   lowest Hinv e-value    0.199642914193861     
   GDM::BFGS:   highest Hinv e-value    4.75828138671904     
   GDM::      : max scaling in EWCs is          2.82842712474619     
   GDM::      : max rotation in step is       -0.120052229901587     
   GDM::        grad.step =  -0.556946960742498     
   ------- Leaving GDM -- hopefully with a step in the right direction! --------
 
   13    -316.8628574127      2.17E-01  Gap = 88.10 eV  Descent step
 
   ------------------- Entering Geometric Direct Minimization ------------------
   GDM::trust : actual energy change is       -0.499865095795485     
   GDM::trust : predicted energy change was   -0.142314354433780     
   GDM::trust : updated trust radius is        0.330000000000000     
   GDM:         diagonal hessian shift is      0.000000000000000E+000
   GDM::PreWSS: input subspace size is                 10
   GDM::PreWSS: working subspace size set to           10
   GDM::PrEWSS: # of linearly dependent vectors =            0
   GDM::PrEWSS: Max dev from orthonormality =   4.013005205916187E-013
   GDM::BFGS:   lowest Hinv e-value    0.189949843628063     
   GDM::BFGS:   highest Hinv e-value    4.83880681696641     
   GDM::      : max scaling in EWCs is          2.82842712474619     
   GDM::      : max rotation in step is        0.100756482556273     
   GDM::        grad.step =  -0.417316509356154     
   ------- Leaving GDM -- hopefully with a step in the right direction! --------
 
   14    -317.3627225085      1.61E-01  Gap = 88.10 eV  Descent step
 
   ------------------- Entering Geometric Direct Minimization ------------------
   GDM::trust : actual energy change is       -0.366407258608774     
   GDM::trust : predicted energy change was   -0.145454964283192     
   GDM::trust : updated trust radius is        0.330000000000000     
   GDM:         diagonal hessian shift is      0.000000000000000E+000
   GDM::PreWSS: input subspace size is                 11
   GDM::PreWSS: working subspace size set to           11
   GDM::PrEWSS: # of linearly dependent vectors =            0
   GDM::PrEWSS: Max dev from orthonormality =   3.437397935734943E-013
   GDM::BFGS:   lowest Hinv e-value    0.219719299334614     
   GDM::BFGS:   highest Hinv e-value    4.84164948749944     
   GDM::      : max scaling in EWCs is          2.82842712474619     
   GDM::      : max rotation in step is       -0.155868159883221     
   GDM::        grad.step =  -0.312503938260856     
   ------- Leaving GDM -- hopefully with a step in the right direction! --------
 
   15    -317.7291297671      1.58E-01  Gap = 88.10 eV  Descent step
 
   ------------------- Entering Geometric Direct Minimization ------------------
   GDM::trust : actual energy change is       -0.250215935992401     
   GDM::trust : predicted energy change was   -0.143337661302646     
   GDM::trust : updated trust radius is        0.330000000000000     
   GDM:         diagonal hessian shift is      0.000000000000000E+000
   GDM::PreWSS: input subspace size is                 12
   GDM::PreWSS: working subspace size set to           12
   GDM::PrEWSS: # of linearly dependent vectors =            0
   GDM::PrEWSS: Max dev from orthonormality =   1.999650445227985E-013
   GDM::BFGS:   lowest Hinv e-value    0.176847507398664     
   GDM::BFGS:   highest Hinv e-value    4.96704551720434     
   GDM::      : max scaling in EWCs is          2.82842712474619     
   GDM::      : max rotation in step is       -0.147564291643253     
   GDM::        grad.step =  -0.260264139959666     
   ------- Leaving GDM -- hopefully with a step in the right direction! --------
 
   16    -317.9793457031      1.31E-01  Gap = 88.10 eV  Descent step
 
   ------------------- Entering Geometric Direct Minimization ------------------
   GDM::trust : actual energy change is       -0.123164707725323     
   GDM::trust : predicted energy change was   -0.189732288846689     
   GDM::trust : updated trust radius is        0.330000000000000     
   GDM:         diagonal hessian shift is      0.000000000000000E+000
   GDM::PreWSS: input subspace size is                 13
   GDM::PreWSS: working subspace size set to           13
   GDM::PrEWSS: # of linearly dependent vectors =            0
   GDM::PrEWSS: Max dev from orthonormality =   3.997809028266630E-013
   GDM::BFGS:   lowest Hinv e-value    7.369901907831879E-002
   GDM::BFGS:   highest Hinv e-value    4.86510482150406     
   GDM::      : max scaling in EWCs is          2.82842712474619     
   GDM::      : max rotation in step is       -0.279861470716246     
   GDM::        grad.step =  -0.421222461511125     
   ------- Leaving GDM -- hopefully with a step in the right direction! --------
 
   17    -318.1025104108      3.83E-01  Gap = 88.10 eV  Descent step
 
   ------------------- Entering Geometric Direct Minimization ------------------
   GDM::trust : actual energy change is        0.288121368327722     
   GDM::trust : predicted energy change was   -0.707343934112895     
   GDM::trust : updated trust radius is        0.108900000000000     
   GDM::search:  On step            1 .  The current bracket is:
       left   : x =  0.0000E+00, e =      -318.1025104108, g = -0.5288E+00
       current: x =  0.7965E+00, e =      -317.8143890425, g =  0.1390E+01
       right  : x =  0.1000E+04, e =      1000.0000000000, g =  0.1000E+04
       next   : x =  0.2365E+00
   GDM::      : max rotation in step is       -8.309365121566109E-002
   ------- Leaving GDM -- hopefully with a step in the right direction! --------
 
   18    -317.8143890425      1.10E-01  Gap = 88.10 eV  Line search: overstep
 
   ------------------- Entering Geometric Direct Minimization ------------------
   GDM::trust : actual energy change is       -7.262988705900852E-002
   GDM::trust : predicted energy change was   -0.707343934112895     
   GDM::trust : updated trust radius is        0.108900000000000     
   GDM:         diagonal hessian shift is      0.000000000000000E+000
   GDM::PreWSS: input subspace size is                 14
   GDM::PreWSS: working subspace size set to           14
   GDM::PrEWSS: # of linearly dependent vectors =            0
   GDM::PrEWSS: Max dev from orthonormality =   6.802050242504798E-013
   GDM::BFGS:   lowest Hinv e-value    0.104740945231659     
   GDM::BFGS:   highest Hinv e-value    4.97118920332280     
   GDM::      : max scaling in EWCs is          2.82842712474619     
   GDM::      : max rotation in step is       -0.121900513546687     
   GDM::        grad.step =  -5.793987517581096E-002
   ------- Leaving GDM -- hopefully with a step in the right direction! --------
 
   19    -318.1751402978      2.11E-01  Gap = 88.10 eV  Descent step
 
   ------------------- Entering Geometric Direct Minimization ------------------
   GDM::trust : actual energy change is       -5.420201821510773E-002
   GDM::trust : predicted energy change was   -1.582980911520120E-002
   GDM::trust : updated trust radius is        0.330000000000000     
   GDM:         diagonal hessian shift is      0.000000000000000E+000
   GDM::PreWSS: input subspace size is                 15
   GDM::PreWSS: working subspace size set to           15
   GDM::PrEWSS: # of linearly dependent vectors =            0
   GDM::PrEWSS: Max dev from orthonormality =   1.113178993428221E-012
   GDM::BFGS:   lowest Hinv e-value    9.155706109790913E-002
   GDM::BFGS:   highest Hinv e-value    5.01257229121597     
   GDM::      : max scaling in EWCs is          2.82842712474619     
   GDM::      : max rotation in step is       -0.340426215781056     
   GDM::        grad.step =  -0.166602331535201     
   ------- Leaving GDM -- hopefully with a step in the right direction! --------
 
   20    -318.2293423161      1.84E-01  Gap = 88.10 eV  Descent step
 
   ------------------- Entering Geometric Direct Minimization ------------------
   GDM::trust : actual energy change is       -0.138933908756087     
   GDM::trust : predicted energy change was   -0.169620577868242     
   GDM::trust : updated trust radius is        0.330000000000000     
   GDM:         diagonal hessian shift is      0.000000000000000E+000
   GDM::PreWSS: input subspace size is                 16
   GDM::PreWSS: working subspace size set to           16
   GDM::PrEWSS: # of linearly dependent vectors =            0
   GDM::PrEWSS: Max dev from orthonormality =   8.196672507398972E-013
   GDM::BFGS:   lowest Hinv e-value    0.206718113834903     
   GDM::BFGS:   highest Hinv e-value    7.22216411431195     
   GDM::      : max scaling in EWCs is          2.82842712474619     
   GDM::      : max rotation in step is        0.504898058383120     
   GDM::        grad.step =  -0.158041220775238     
   ------- Leaving GDM -- hopefully with a step in the right direction! --------
 
   21    -318.3682762248      2.59E-01  Gap = 88.10 eV  Descent step
 
   ------------------- Entering Geometric Direct Minimization ------------------
   GDM::trust : actual energy change is       -2.764413094092788E-002
   GDM::trust : predicted energy change was   -0.199990878974627     
   GDM::trust : updated trust radius is        0.330000000000000     
   GDM:         diagonal hessian shift is      0.000000000000000E+000
   GDM::PreWSS: input subspace size is                 17
   GDM::PreWSS: working subspace size set to           17
   GDM::PrEWSS: # of linearly dependent vectors =            0
   GDM::PrEWSS: Max dev from orthonormality =   4.853027701923196E-013
   GDM::BFGS:   lowest Hinv e-value    0.143632792629524     
   GDM::BFGS:   highest Hinv e-value    6.04316747497419     
   GDM::      : max scaling in EWCs is          2.82842712474619     
   GDM::      : max rotation in step is        0.216043095688744     
   GDM::        grad.step =  -0.305892992665544     
   ------- Leaving GDM -- hopefully with a step in the right direction! --------
 
   22    -318.3959203558      3.05E-01  Gap = 88.10 eV  Descent step
 
   ------------------- Entering Geometric Direct Minimization ------------------
   GDM::trust : actual energy change is       -3.746907954126755E-002
   GDM::trust : predicted energy change was   -0.416269229212301     
   GDM::trust : updated trust radius is        0.330000000000000     
   GDM:         diagonal hessian shift is      0.000000000000000E+000
   GDM::PreWSS: input subspace size is                 18
   GDM::PreWSS: working subspace size set to           18
   GDM::PrEWSS: # of linearly dependent vectors =            0
   GDM::PrEWSS: Max dev from orthonormality =   8.004222284974105E-013
   GDM::BFGS:   lowest Hinv e-value    0.105458033457609     
   GDM::BFGS:   highest Hinv e-value    9.54783930033591     
   GDM::      : max scaling in EWCs is          2.82842712474619     
   GDM::      : max rotation in step is       -0.176610917885786     
   GDM::        grad.step =  -0.290056392177756     
   ------- Leaving GDM -- hopefully with a step in the right direction! --------
 
   23    -318.4333894353      1.66E-01  Gap = 88.10 eV  Descent step
 
   ------------------- Entering Geometric Direct Minimization ------------------
   GDM::trust : actual energy change is        0.161002282817549     
   GDM::trust : predicted energy change was   -0.534214095626265     
   GDM::trust : updated trust radius is        0.108900000000000     
   GDM::search:  On step            1 .  The current bracket is:
       left   : x =  0.0000E+00, e =      -318.4333894353, g = -0.4445E+00
       current: x =  0.6526E+00, e =      -318.2723871525, g =  0.1063E+01
       right  : x =  0.1000E+04, e =      1000.0000000000, g =  0.1000E+04
       next   : x =  0.2098E+00
   GDM::      : max rotation in step is       -5.678543446890393E-002
   ------- Leaving GDM -- hopefully with a step in the right direction! --------
 
   24    -318.2723871525      4.27E-02  Gap = 88.10 eV  Line search: overstep
 
   ------------------- Entering Geometric Direct Minimization ------------------
   GDM::trust : actual energy change is       -5.377234804313957E-002
   GDM::trust : predicted energy change was   -0.534214095626265     
   GDM::trust : updated trust radius is        0.108900000000000     
   GDM:         diagonal hessian shift is      0.000000000000000E+000
   GDM::PreWSS: input subspace size is                 19
   GDM::PreWSS: working subspace size set to           18
   GDM::PrEWSS: # of linearly dependent vectors =            0
   GDM::PrEWSS: Max dev from orthonormality =   1.003211402839099E-012
   GDM::BFGS:   lowest Hinv e-value    0.173978469542648     
   GDM::BFGS:   highest Hinv e-value    7.09015608388438     
   GDM::      : max scaling in EWCs is          2.82842712474619     
   GDM::      : max rotation in step is       -9.563370011652092E-002
   GDM::        grad.step =  -3.221950055147767E-002
   ------- Leaving GDM -- hopefully with a step in the right direction! --------
 
   25    -318.4871617833      9.42E-02  Gap = 88.10 eV  Descent step
 
   ------------------- Entering Geometric Direct Minimization ------------------
   GDM::trust : actual energy change is       -2.700963707883375E-002
   GDM::trust : predicted energy change was   -2.003769218576334E-002
   GDM::trust : updated trust radius is        0.330000000000000     
   GDM:         diagonal hessian shift is      0.000000000000000E+000
   GDM::PreWSS: input subspace size is                 19
   GDM::PreWSS: working subspace size set to           18
   GDM::PrEWSS: # of linearly dependent vectors =            0
   GDM::PrEWSS: Max dev from orthonormality =   8.508818649666239E-013
   GDM::BFGS:   lowest Hinv e-value    0.146349227585531     
   GDM::BFGS:   highest Hinv e-value    5.89677284830251     
   GDM::trust : dogleg step length is          0.330000000000000     
   GDM::      : max scaling in EWCs is          2.82842712474619     
   GDM::      : max rotation in step is        0.355632205838482     
   GDM::        grad.step =  -8.831143338509261E-002
   ------- Leaving GDM -- hopefully with a step in the right direction! --------
 
   26    -318.5141714204      1.07E-01  Gap = 88.10 eV  Dog-leg BFGS step
 
   ------------------- Entering Geometric Direct Minimization ------------------
   GDM::trust : actual energy change is       -5.712577276051434E-002
   GDM::trust : predicted energy change was   -0.141006265170736     
   GDM::trust : updated trust radius is        0.330000000000000     
   GDM:         diagonal hessian shift is      0.000000000000000E+000
   GDM::PreWSS: input subspace size is                 19
   GDM::PreWSS: working subspace size set to           18
   GDM::PrEWSS: # of linearly dependent vectors =            0
   GDM::PrEWSS: Max dev from orthonormality =   5.817429871157742E-013
   GDM::BFGS:   lowest Hinv e-value    0.231717582883633     
   GDM::BFGS:   highest Hinv e-value    11.3877151678189     
   GDM::      : max scaling in EWCs is          2.82842712474619     
   GDM::      : max rotation in step is        0.309129113786908     
   GDM::        grad.step =  -0.117031657087294     
   ------- Leaving GDM -- hopefully with a step in the right direction! --------
 
   27    -318.5712971932      1.17E-01  Gap = -5.05 eV  Descent step
 
   ------------------- Entering Geometric Direct Minimization ------------------
   GDM::trust : actual energy change is        7.181733221142395E-002
   GDM::trust : predicted energy change was   -0.280016102667131     
   GDM::trust : updated trust radius is        0.108900000000000     
   GDM::search:  On step            1 .  The current bracket is:
       left   : x =  0.0000E+00, e =      -318.5712971932, g = -0.1701E+00
       current: x =  0.6879E+00, e =      -318.4994798610, g =  0.4223E+00
       right  : x =  0.1000E+04, e =      1000.0000000000, g =  0.1000E+04
       next   : x =  0.2132E+00
   GDM::      : max rotation in step is        9.578524241711162E-002
   ------- Leaving GDM -- hopefully with a step in the right direction! --------
 
   28    -318.4994798610      2.65E-02  Gap = 88.10 eV  Line search: overstep
 
   ------------------- Entering Geometric Direct Minimization ------------------
   GDM::trust : actual energy change is       -2.069164127055956E-002
   GDM::trust : predicted energy change was   -0.280016102667131     
   GDM::trust : updated trust radius is        0.108900000000000     
   GDM:         diagonal hessian shift is      0.000000000000000E+000
   GDM::PreWSS: input subspace size is                 19
   GDM::PreWSS: working subspace size set to           18
   GDM::PrEWSS: # of linearly dependent vectors =            0
   GDM::PrEWSS: Max dev from orthonormality =   4.570302469808496E-013
   GDM::BFGS:   lowest Hinv e-value    0.237136869236845     
   GDM::BFGS:   highest Hinv e-value    10.8292255165975     
   GDM::      : max scaling in EWCs is          2.82842712474619     
   GDM::      : max rotation in step is        0.175051030572604     
   GDM::        grad.step =  -2.543039292285009E-002
   ------- Leaving GDM -- hopefully with a step in the right direction! --------
 
   29    -318.5919888344      1.33E-01  Gap = 88.10 eV  Descent step
 
   ------------------- Entering Geometric Direct Minimization ------------------
   GDM::trust : actual energy change is       -1.901694071864313E-002
   GDM::trust : predicted energy change was   -2.115126863906641E-002
   GDM::trust : updated trust radius is        0.330000000000000     
   GDM:         diagonal hessian shift is      0.000000000000000E+000
   GDM::PreWSS: input subspace size is                 19
   GDM::PreWSS: working subspace size set to           18
   GDM::PrEWSS: # of linearly dependent vectors =            0
   GDM::PrEWSS: Max dev from orthonormality =   4.623766647338101E-013
   GDM::BFGS:   lowest Hinv e-value    0.201526769698659     
   GDM::BFGS:   highest Hinv e-value    9.79631354831962     
   GDM::trust : dogleg step length is          0.330000000000000     
   GDM::      : max scaling in EWCs is          2.82842712474619     
   GDM::      : max rotation in step is       -0.379277367530182     
   GDM::        grad.step =  -5.472292928132543E-002
   ------- Leaving GDM -- hopefully with a step in the right direction! --------
 
   30    -318.6110057752      8.42E-02  Gap = 88.10 eV  Dog-leg BFGS step
 
   ------------------- Entering Geometric Direct Minimization ------------------
   GDM::trust : actual energy change is       -7.718931840940968E-004
   GDM::trust : predicted energy change was   -8.294564429927961E-002
   GDM::trust : updated trust radius is        0.330000000000000     
   GDM:         diagonal hessian shift is      0.000000000000000E+000
   GDM::PreWSS: input subspace size is                 19
   GDM::PreWSS: working subspace size set to           18
   GDM::PrEWSS: # of linearly dependent vectors =            0
   GDM::PrEWSS: Max dev from orthonormality =   6.337569358194628E-013
   GDM::BFGS:   lowest Hinv e-value    0.337476395916140     
   GDM::BFGS:   highest Hinv e-value    6.11411994244852     
   GDM::      : max scaling in EWCs is          2.82842712474619     
   GDM::      : max rotation in step is        0.193761550917339     
   GDM::        grad.step =  -0.110232691790481     
   ------- Leaving GDM -- hopefully with a step in the right direction! --------
 
   31    -318.6117776683      9.95E-02  Gap = 88.10 eV  Descent step
 
   ------------------- Entering Geometric Direct Minimization ------------------
   GDM::trust : actual energy change is        6.291198123528829E-002
   GDM::trust : predicted energy change was   -0.257709091758921     
   GDM::trust : updated trust radius is        0.108900000000000     
   GDM::search:  On step            1 .  The current bracket is:
       left   : x =  0.0000E+00, e =      -318.6117776683, g = -0.2468E+00
       current: x =  0.4467E+00, e =      -318.5488656871, g =  0.4892E+00
       right  : x =  0.1000E+04, e =      1000.0000000000, g =  0.1000E+04
       next   : x =  0.1422E+00
   GDM::      : max rotation in step is        6.167922162969983E-002
   ------- Leaving GDM -- hopefully with a step in the right direction! --------
 
   32    -318.5488656871      3.90E-02  Gap = 88.10 eV  Line search: overstep
 
   ------------------- Entering Geometric Direct Minimization ------------------
   GDM::trust : actual energy change is       -1.649604511300140E-002
   GDM::trust : predicted energy change was   -0.257709091758921     
   GDM::trust : updated trust radius is        0.108900000000000     
   GDM:         diagonal hessian shift is      0.000000000000000E+000
   GDM::PreWSS: input subspace size is                 19
   GDM::PreWSS: working subspace size set to           18
   GDM::PrEWSS: # of linearly dependent vectors =            0
   GDM::PrEWSS: Max dev from orthonormality =   6.638023464233811E-013
   GDM::BFGS:   lowest Hinv e-value    0.217465096431780     
   GDM::BFGS:   highest Hinv e-value    6.27647641288359     
   GDM::      : max scaling in EWCs is          2.82842712474619     
   GDM::      : max rotation in step is        7.104540317650304E-002
   GDM::        grad.step =  -1.370404005063282E-002
   ------- Leaving GDM -- hopefully with a step in the right direction! --------
 
   33    -318.6282737135      4.31E-02  Gap = 88.10 eV  Descent step
 
   ------------------- Entering Geometric Direct Minimization ------------------
   GDM::trust : actual energy change is        1.133018825498766E-004
   GDM::trust : predicted energy change was   -2.302261071982449E-002
   GDM::trust : updated trust radius is        0.108900000000000     
   GDM::search:  On step            1 .  The current bracket is:
       left   : x =  0.0000E+00, e =      -318.6282737135, g = -0.7759E-01
       current: x =  0.1766E+00, e =      -318.6281604116, g =  0.8151E-01
       right  : x =  0.1000E+04, e =      1000.0000000000, g =  0.1000E+04
       next   : x =  0.8759E-01
   GDM::      : max rotation in step is        3.523141626125670E-002
   ------- Leaving GDM -- hopefully with a step in the right direction! --------
 
   34    -318.6281604116      4.93E-03  Gap = 88.10 eV  Line search: overstep
 
   ------------------- Entering Geometric Direct Minimization ------------------
   GDM::trust : actual energy change is       -3.458260887043707E-003
   GDM::trust : predicted energy change was   -2.302261071982449E-002
   GDM::trust : updated trust radius is        0.108900000000000     
   GDM:         diagonal hessian shift is      0.000000000000000E+000
   GDM::PreWSS: input subspace size is                 19
   GDM::PreWSS: working subspace size set to           18
   GDM::PrEWSS: # of linearly dependent vectors =            0
   GDM::PrEWSS: Max dev from orthonormality =   6.662552454184123E-013
   GDM::BFGS:   lowest Hinv e-value    0.252081022335151     
   GDM::BFGS:   highest Hinv e-value    5.64817964684572     
   GDM::trust : dogleg step length is          0.108900000000000     
   GDM::      : max scaling in EWCs is          2.82842712474619     
   GDM::      : max rotation in step is        6.618358720709112E-002
   GDM::        grad.step =  -1.011725841802960E-002
   ------- Leaving GDM -- hopefully with a step in the right direction! --------
 
   35    -318.6317319743      3.12E-02  Gap = 88.10 eV  Dog-leg BFGS step
 
   ------------------- Entering Geometric Direct Minimization ------------------
   GDM::trust : actual energy change is        1.954805254626990E-003
   GDM::trust : predicted energy change was   -1.894875774330181E-002
   GDM::trust : updated trust radius is        3.593700000000000E-002
   GDM::search:  On step            1 .  The current bracket is:
       left   : x =  0.0000E+00, e =      -318.6317319743, g = -0.5733E-01
       current: x =  0.1765E+00, e =      -318.6297771691, g =  0.7910E-01
       right  : x =  0.1000E+04, e =      1000.0000000000, g =  0.1000E+04
       next   : x =  0.7395E-01
   GDM::      : max rotation in step is        2.773330529737782E-002
   ------- Leaving GDM -- hopefully with a step in the right direction! --------
 
   36    -318.6297771691      4.34E-03  Gap = 88.10 eV  Line search: overstep
 
   ------------------- Entering Geometric Direct Minimization ------------------
   GDM::trust : actual energy change is       -2.115393674159805E-003
   GDM::trust : predicted energy change was   -1.894875774330181E-002
   GDM::trust : updated trust radius is        3.593700000000000E-002
   GDM:         diagonal hessian shift is      0.000000000000000E+000
   GDM::PreWSS: input subspace size is                 19
   GDM::PreWSS: working subspace size set to           18
   GDM::PrEWSS: # of linearly dependent vectors =            0
   GDM::PrEWSS: Max dev from orthonormality =   3.406726289956197E-012
   GDM::BFGS:   lowest Hinv e-value    0.233053778998204     
   GDM::BFGS:   highest Hinv e-value    4.61273669611660     
   GDM::      : max scaling in EWCs is          2.82842712474619     
   GDM::      : max rotation in step is       -2.105041572198482E-002
   GDM::        grad.step =  -2.213209511519336E-003
   ------- Leaving GDM -- hopefully with a step in the right direction! --------
 
   37    -318.6338473680      1.72E-02  Gap = 88.10 eV  Descent step
 
   ------------------- Entering Geometric Direct Minimization ------------------
   GDM::trust : actual energy change is       -4.072285743745852E-004
   GDM::trust : predicted energy change was   -3.081584365863796E-003
   GDM::trust : updated trust radius is        0.330000000000000     
   GDM:         diagonal hessian shift is      0.000000000000000E+000
   GDM::PreWSS: input subspace size is                 19
   GDM::PreWSS: working subspace size set to           18
   GDM::PrEWSS: # of linearly dependent vectors =            0
   GDM::PrEWSS: Max dev from orthonormality =   7.077005648170598E-012
   GDM::BFGS:   lowest Hinv e-value    0.229588427300434     
   GDM::BFGS:   highest Hinv e-value    4.61514419385350     
   GDM::      : max scaling in EWCs is          2.82842712474619     
   GDM::      : max rotation in step is       -4.265915753890837E-002
   GDM::        grad.step =  -2.322889270904955E-003
   ------- Leaving GDM -- hopefully with a step in the right direction! --------
 
   38    -318.6342545966      2.64E-02  Gap = 88.10 eV  Normal BFGS step
 
   ------------------- Entering Geometric Direct Minimization ------------------
   GDM::trust : actual energy change is       -1.368682384509157E-003
   GDM::trust : predicted energy change was   -3.484333906357432E-003
   GDM::trust : updated trust radius is        0.330000000000000     
   GDM:         diagonal hessian shift is      0.000000000000000E+000
   GDM::PreWSS: input subspace size is                 19
   GDM::PreWSS: working subspace size set to           18
   GDM::PrEWSS: # of linearly dependent vectors =            0
   GDM::PrEWSS: Max dev from orthonormality =   1.507815400314527E-011
   GDM::BFGS:   lowest Hinv e-value    0.215083960073899     
   GDM::BFGS:   highest Hinv e-value    4.68221121624987     
   GDM::      : max scaling in EWCs is          2.82842712474619     
   GDM::      : max rotation in step is       -7.821703778949946E-002
   GDM::        grad.step =  -9.126153518871441E-004
   ------- Leaving GDM -- hopefully with a step in the right direction! --------
 
   39    -318.6356232790      1.63E-02  Gap = 88.10 eV  Normal BFGS step
 
   ------------------- Entering Geometric Direct Minimization ------------------
   GDM::trust : actual energy change is       -7.004131033454541E-004
   GDM::trust : predicted energy change was   -1.368923027830716E-003
   GDM::trust : updated trust radius is        0.330000000000000     
   GDM:         diagonal hessian shift is      0.000000000000000E+000
   GDM::PreWSS: input subspace size is                 19
   GDM::PreWSS: working subspace size set to           18
   GDM::PrEWSS: # of linearly dependent vectors =            0
   GDM::PrEWSS: Max dev from orthonormality =   2.474975432931181E-011
   GDM::BFGS:   lowest Hinv e-value    0.169236894003447     
   GDM::BFGS:   highest Hinv e-value    11.9112486090938     
   GDM::      : max scaling in EWCs is          2.82842712474619     
   GDM::      : max rotation in step is       -0.409775234394277     
   GDM::        grad.step =  -3.597507554834193E-003
   ------- Leaving GDM -- hopefully with a step in the right direction! --------
 
   40    -318.6363236921      1.97E-02  Gap = 88.10 eV  Normal BFGS step
 
   ------------------- Entering Geometric Direct Minimization ------------------
   GDM::trust : actual energy change is       -1.284503506894907E-003
   GDM::trust : predicted energy change was   -5.396261332251289E-003
   GDM::trust : updated trust radius is        0.330000000000000     
   GDM:         diagonal hessian shift is      0.000000000000000E+000
   GDM::PreWSS: input subspace size is                 19
   GDM::PreWSS: working subspace size set to           18
   GDM::PrEWSS: # of linearly dependent vectors =            0
   GDM::PrEWSS: Max dev from orthonormality =   5.917315248904487E-012
   GDM::BFGS:   lowest Hinv e-value    0.159776559965541     
   GDM::BFGS:   highest Hinv e-value    13.9379204214808     
   GDM::      : max scaling in EWCs is          2.82842712474619     
   GDM::      : max rotation in step is       -0.163865658463804     
   GDM::        grad.step =  -3.704356181242833E-003
   ------- Leaving GDM -- hopefully with a step in the right direction! --------
 
   41    -318.6376081956      3.04E-02  Gap = 88.10 eV  Normal BFGS step
 
   ------------------- Entering Geometric Direct Minimization ------------------
   GDM::trust : actual energy change is       -2.123699439664506E-003
   GDM::trust : predicted energy change was   -5.556534271864249E-003
   GDM::trust : updated trust radius is        0.330000000000000     
   GDM:         diagonal hessian shift is      0.000000000000000E+000
   GDM::PreWSS: input subspace size is                 19
   GDM::PreWSS: working subspace size set to           18
   GDM::PrEWSS: # of linearly dependent vectors =            0
   GDM::PrEWSS: Max dev from orthonormality =   2.363383794223850E-012
   GDM::BFGS:   lowest Hinv e-value    0.183944009643234     
   GDM::BFGS:   highest Hinv e-value    12.0901577584445     
   GDM::      : max scaling in EWCs is          2.82842712474619     
   GDM::      : max rotation in step is        0.159868021260822     
   GDM::        grad.step =  -8.397542564867147E-003
   ------- Leaving GDM -- hopefully with a step in the right direction! --------
 
   42    -318.6397318950      3.12E-02  Gap = 88.10 eV  Normal BFGS step
 
   ------------------- Entering Geometric Direct Minimization ------------------
   GDM::trust : actual energy change is       -3.798443552113895E-003
   GDM::trust : predicted energy change was   -1.259631384730072E-002
   GDM::trust : updated trust radius is        0.330000000000000     
   GDM:         diagonal hessian shift is      0.000000000000000E+000
   GDM::PreWSS: input subspace size is                 19
   GDM::PreWSS: working subspace size set to           18
   GDM::PrEWSS: # of linearly dependent vectors =            0
   GDM::PrEWSS: Max dev from orthonormality =   3.684958588268117E-012
   GDM::BFGS:   lowest Hinv e-value    0.193533679913572     
   GDM::BFGS:   highest Hinv e-value    15.2016646959594     
   GDM::      : max scaling in EWCs is          2.78515471998735     
   GDM::      : max rotation in step is       -0.692215385913401     
   GDM::        grad.step =  -8.813508684340200E-003
   ------- Leaving GDM -- hopefully with a step in the right direction! --------
 
   43    -318.6435303386      2.52E-02  Gap = 88.10 eV  Normal BFGS step
 
   ------------------- Entering Geometric Direct Minimization ------------------
   GDM::trust : actual energy change is        5.560922198185381E-003
   GDM::trust : predicted energy change was   -1.322026302651030E-002
   GDM::trust : updated trust radius is        0.108900000000000     
   GDM::search:  On step            1 .  The current bracket is:
       left   : x =  0.0000E+00, e =      -318.6435303386, g = -0.1156E-01
       current: x =  0.7625E+00, e =      -318.6379694164, g =  0.3408E-01
       right  : x =  0.1000E+04, e =      1000.0000000000, g =  0.1000E+04
       next   : x =  0.2338E+00
   GDM::      : max rotation in step is       -0.212211751722227     
   ------- Leaving GDM -- hopefully with a step in the right direction! --------
 
   44    -318.6379694164      5.37E-03  Gap = 88.10 eV  Line search: overstep
 
   ------------------- Entering Geometric Direct Minimization ------------------
   GDM::trust : actual energy change is       -1.779431893453420E-003
   GDM::trust : predicted energy change was   -1.322026302651030E-002
   GDM::trust : updated trust radius is        0.108900000000000     
   GDM:         diagonal hessian shift is      0.000000000000000E+000
   GDM::PreWSS: input subspace size is                 19
   GDM::PreWSS: working subspace size set to           18
   GDM::PrEWSS: # of linearly dependent vectors =            0
   GDM::PrEWSS: Max dev from orthonormality =   7.217393349634449E-012
   GDM::BFGS:   lowest Hinv e-value    0.194872757168489     
   GDM::BFGS:   highest Hinv e-value    5.96428976858315     
   GDM::      : max scaling in EWCs is          2.67180240227947     
   GDM::      : max rotation in step is        8.417816068448922E-002
   GDM::        grad.step =  -3.885773666080870E-003
   ------- Leaving GDM -- hopefully with a step in the right direction! --------
 
   45    -318.6453097705      1.47E-02  Gap = 88.10 eV  Normal BFGS step
 
   ------------------- Entering Geometric Direct Minimization ------------------
   GDM::trust : actual energy change is       -1.458863272318922E-003
   GDM::trust : predicted energy change was   -5.828660499121306E-003
   GDM::trust : updated trust radius is        0.330000000000000     
   GDM:         diagonal hessian shift is      0.000000000000000E+000
   GDM::PreWSS: input subspace size is                 19
   GDM::PreWSS: working subspace size set to           18
   GDM::PrEWSS: # of linearly dependent vectors =            0
   GDM::PrEWSS: Max dev from orthonormality =   7.531083395795335E-012
   GDM::BFGS:   lowest Hinv e-value    0.196370374411712     
   GDM::BFGS:   highest Hinv e-value    6.17789264642881     
   GDM::      : max scaling in EWCs is          2.74664532142748     
   GDM::      : max rotation in step is       -6.853966559236521E-002
   GDM::        grad.step =  -1.567359570773353E-003
   ------- Leaving GDM -- hopefully with a step in the right direction! --------
 
   46    -318.6467686338      1.36E-02  Gap = 88.10 eV  Normal BFGS step
 
   ------------------- Entering Geometric Direct Minimization ------------------
   GDM::trust : actual energy change is        9.252000921833314E-005
   GDM::trust : predicted energy change was   -2.351039356160030E-003
   GDM::trust : updated trust radius is        0.108900000000000     
   GDM::search:  On step            1 .  The current bracket is:
       left   : x =  0.0000E+00, e =      -318.6467686338, g = -0.1659E-01
       current: x =  0.9449E-01, e =      -318.6466761137, g =  0.1868E-01
       right  : x =  0.1000E+04, e =      1000.0000000000, g =  0.1000E+04
       next   : x =  0.4461E-01
   GDM::      : max rotation in step is       -3.235966697184647E-002
   ------- Leaving GDM -- hopefully with a step in the right direction! --------
 
   47    -318.6466761137      2.05E-03  Gap = 88.10 eV  Line search: overstep
 
   ------------------- Entering Geometric Direct Minimization ------------------
   GDM::trust : actual energy change is       -3.716607836281582E-004
   GDM::trust : predicted energy change was   -2.351039356160030E-003
   GDM::trust : updated trust radius is        0.108900000000000     
   GDM:         diagonal hessian shift is      0.000000000000000E+000
   GDM::PreWSS: input subspace size is                 19
   GDM::PreWSS: working subspace size set to           18
   GDM::PrEWSS: # of linearly dependent vectors =            0
   GDM::PrEWSS: Max dev from orthonormality =   7.692835951589316E-012
   GDM::BFGS:   lowest Hinv e-value    0.199993962022092     
   GDM::BFGS:   highest Hinv e-value    5.85081805806883     
   GDM::      : max scaling in EWCs is          2.72366578495594     
   GDM::      : max rotation in step is       -4.052099620062916E-002
   GDM::        grad.step =  -5.795741241053994E-004
   ------- Leaving GDM -- hopefully with a step in the right direction! --------
 
   48    -318.6471402945      1.16E-02  Gap = 88.10 eV  Normal BFGS step
 
   ------------------- Entering Geometric Direct Minimization ------------------
   GDM::trust : actual energy change is       -2.722996391071320E-004
   GDM::trust : predicted energy change was   -8.693611861580992E-004
   GDM::trust : updated trust radius is        0.330000000000000     
   GDM:         diagonal hessian shift is      0.000000000000000E+000
   GDM::PreWSS: input subspace size is                 19
   GDM::PreWSS: working subspace size set to           18
   GDM::PrEWSS: # of linearly dependent vectors =            0
   GDM::PrEWSS: Max dev from orthonormality =   9.448133247991208E-012
   GDM::BFGS:   lowest Hinv e-value    0.200495481136207     
   GDM::BFGS:   highest Hinv e-value    5.89826314084509     
   GDM::      : max scaling in EWCs is          2.70853400593217     
   GDM::      : max rotation in step is       -3.011256234087577E-002
   GDM::        grad.step =  -2.301545546193324E-004
   ------- Leaving GDM -- hopefully with a step in the right direction! --------
 
   49    -318.6474125942      5.80E-03  Gap = 88.10 eV  Normal BFGS step
 
   ------------------- Entering Geometric Direct Minimization ------------------
   GDM::trust : actual energy change is       -1.424936976945901E-004
   GDM::trust : predicted energy change was   -3.452318319289986E-004
   GDM::trust : updated trust radius is        0.330000000000000     
   GDM:         diagonal hessian shift is      0.000000000000000E+000
   GDM::PreWSS: input subspace size is                 19
   GDM::PreWSS: working subspace size set to           18
   GDM::PrEWSS: # of linearly dependent vectors =            0
   GDM::PrEWSS: Max dev from orthonormality =   1.264419124957783E-011
   GDM::BFGS:   lowest Hinv e-value    0.200417500132234     
   GDM::BFGS:   highest Hinv e-value    6.27954168096605     
   GDM::      : max scaling in EWCs is          2.72743787859428     
   GDM::      : max rotation in step is       -5.220720662485180E-002
   GDM::        grad.step =  -2.351492991225153E-004
   ------- Leaving GDM -- hopefully with a step in the right direction! --------
 
   50    -318.6475550879      4.25E-03  Gap = 88.10 eV  Normal BFGS step
 
   ------------------- Entering Geometric Direct Minimization ------------------
   GDM::trust : actual energy change is       -5.998440184384890E-005
   GDM::trust : predicted energy change was   -3.527239486837730E-004
   GDM::trust : updated trust radius is        0.330000000000000     
   GDM:         diagonal hessian shift is      0.000000000000000E+000
   GDM::PreWSS: input subspace size is                 19
   GDM::PreWSS: working subspace size set to           18
   GDM::PrEWSS: # of linearly dependent vectors =            0
   GDM::PrEWSS: Max dev from orthonormality =   1.419087763965265E-011
   GDM::BFGS:   lowest Hinv e-value    0.201546616660903     
   GDM::BFGS:   highest Hinv e-value    8.55521141362177     
   GDM::      : max scaling in EWCs is          2.76570017326715     
   GDM::      : max rotation in step is       -2.805591553412162E-002
   GDM::        grad.step =  -1.788479639086024E-004
   ------- Leaving GDM -- hopefully with a step in the right direction! --------
 
   51    -318.6476150723      4.14E-03  Gap = 88.10 eV  Normal BFGS step
 
   ------------------- Entering Geometric Direct Minimization ------------------
   GDM::trust : actual energy change is       -6.458293449895791E-005
   GDM::trust : predicted energy change was   -2.682719458629035E-004
   GDM::trust : updated trust radius is        0.330000000000000     
   GDM:         diagonal hessian shift is      0.000000000000000E+000
   GDM::PreWSS: input subspace size is                 19
   GDM::PreWSS: working subspace size set to           18
   GDM::PrEWSS: # of linearly dependent vectors =            0
   GDM::PrEWSS: Max dev from orthonormality =   9.950676393977176E-011
   GDM::BFGS:   lowest Hinv e-value    0.191499402896262     
   GDM::BFGS:   highest Hinv e-value    7.34638020092878     
   GDM::      : max scaling in EWCs is          2.75269869626523     
   GDM::      : max rotation in step is       -1.079906215159427E-002
   GDM::        grad.step =  -4.971271999585755E-005
   ------- Leaving GDM -- hopefully with a step in the right direction! --------
 
   52    -318.6476796552      2.86E-03  Gap = 88.10 eV  Normal BFGS step
 
   ------------------- Entering Geometric Direct Minimization ------------------
   GDM::trust : actual energy change is       -2.882705814499786E-005
   GDM::trust : predicted energy change was   -7.456907999378635E-005
   GDM::trust : updated trust radius is        0.330000000000000     
   GDM:         diagonal hessian shift is      0.000000000000000E+000
   GDM::PreWSS: input subspace size is                 19
   GDM::PreWSS: working subspace size set to           18
   GDM::PrEWSS: # of linearly dependent vectors =            0
   GDM::PrEWSS: Max dev from orthonormality =   4.122203273171365E-011
   GDM::BFGS:   lowest Hinv e-value    0.200662263336601     
   GDM::BFGS:   highest Hinv e-value    6.05994992835108     
   GDM::      : max scaling in EWCs is          2.75723350898975     
   GDM::      : max rotation in step is       -7.071515719191910E-003
   GDM::        grad.step =  -1.646916537778991E-005
   ------- Leaving GDM -- hopefully with a step in the right direction! --------
 
   53    -318.6477084823      1.31E-03  Gap = 90.85 eV  Normal BFGS step
 
   ------------------- Entering Geometric Direct Minimization ------------------
   GDM::trust : actual energy change is       -1.132224753064293E-005
   GDM::trust : predicted energy change was   -2.470374806668486E-005
   GDM::trust : updated trust radius is        0.330000000000000     
   GDM:         diagonal hessian shift is      0.000000000000000E+000
   GDM::PreWSS: input subspace size is                 19
   GDM::PreWSS: working subspace size set to           18
   GDM::PrEWSS: # of linearly dependent vectors =            0
   GDM::PrEWSS: Max dev from orthonormality =   9.679749363167289E-011
   GDM::BFGS:   lowest Hinv e-value    0.200954880736518     
   GDM::BFGS:   highest Hinv e-value    7.95858430062130     
   GDM::      : max scaling in EWCs is          2.75933494176560     
   GDM::      : max rotation in step is       -9.526729190403198E-003
   GDM::        grad.step =  -1.037720086954325E-005
   ------- Leaving GDM -- hopefully with a step in the right direction! --------
 
   54    -318.6477198045      7.88E-04  Gap = 88.10 eV  Normal BFGS step
 
   ------------------- Entering Geometric Direct Minimization ------------------
   GDM::trust : actual energy change is       -5.717486772027769E-006
   GDM::trust : predicted energy change was   -1.556580130431488E-005
   GDM::trust : updated trust radius is        0.330000000000000     
   GDM:         diagonal hessian shift is      0.000000000000000E+000
   GDM::PreWSS: input subspace size is                 19
   GDM::PreWSS: working subspace size set to           18
   GDM::PrEWSS: # of linearly dependent vectors =            0
   GDM::PrEWSS: Max dev from orthonormality =   1.758890741387908E-010
   GDM::BFGS:   lowest Hinv e-value    0.199628955082517     
   GDM::BFGS:   highest Hinv e-value    8.82342577184796     
   GDM::      : max scaling in EWCs is          2.76456184855608     
   GDM::      : max rotation in step is        2.312854436625496E-003
   GDM::        grad.step =  -1.534541653472040E-006
   ------- Leaving GDM -- hopefully with a step in the right direction! --------
 
   55    -318.6477255220      5.27E-04  Gap = 88.10 eV  Normal BFGS step
 
   ------------------- Entering Geometric Direct Minimization ------------------
   GDM::trust : actual energy change is       -7.940482191770570E-007
   GDM::trust : predicted energy change was   -2.301812480208060E-006
   GDM::trust : updated trust radius is        0.330000000000000     
   GDM:         diagonal hessian shift is      0.000000000000000E+000
   GDM::PreWSS: input subspace size is                 19
   GDM::PreWSS: working subspace size set to           18
   GDM::PrEWSS: # of linearly dependent vectors =            0
   GDM::PrEWSS: Max dev from orthonormality =   6.811807576334594E-010
   GDM::BFGS:   lowest Hinv e-value    0.202962755862716     
   GDM::BFGS:   highest Hinv e-value    9.06920501259805     
   GDM::      : max scaling in EWCs is          2.76434567661860     
   GDM::      : max rotation in step is        1.531870142083405E-003
   GDM::        grad.step =  -4.074546362418784E-007
   ------- Leaving GDM -- hopefully with a step in the right direction! --------
 
   56    -318.6477263160      3.05E-04  Gap = 88.10 eV  Normal BFGS step
 
   ------------------- Entering Geometric Direct Minimization ------------------
   GDM::trust : actual energy change is       -2.545583583923872E-007
   GDM::trust : predicted energy change was   -6.111819543628178E-007
   GDM::trust : updated trust radius is        0.330000000000000     
   GDM:         diagonal hessian shift is      0.000000000000000E+000
   GDM::PreWSS: input subspace size is                 19
   GDM::PreWSS: working subspace size set to           18
   GDM::PrEWSS: # of linearly dependent vectors =            0
   GDM::PrEWSS: Max dev from orthonormality =   1.480801689601741E-009
   GDM::BFGS:   lowest Hinv e-value    0.217258493251730     
   GDM::BFGS:   highest Hinv e-value    8.58410767470955     
   GDM::      : max scaling in EWCs is          2.76460060943846     
   GDM::      : max rotation in step is        8.322616483205783E-004
   GDM::        grad.step =  -1.591949643002475E-007
   ------- Leaving GDM -- hopefully with a step in the right direction! --------
 
   57    -318.6477265706      1.82E-04  Gap = 88.10 eV  Normal BFGS step
 
   ------------------- Entering Geometric Direct Minimization ------------------
   GDM::trust : actual energy change is       -1.064450430021679E-007
   GDM::trust : predicted energy change was   -2.387924464503715E-007
   GDM::trust : updated trust radius is        0.330000000000000     
   GDM:         diagonal hessian shift is      0.000000000000000E+000
   GDM::PreWSS: input subspace size is                 19
   GDM::PreWSS: working subspace size set to           18
   GDM::PrEWSS: # of linearly dependent vectors =            1
   GDM::PrEWSS: Max dev from orthonormality =   1.049997720714568E-009
   GDM::BFGS:   lowest Hinv e-value    0.219368122571306     
   GDM::BFGS:   highest Hinv e-value    8.58567998425847     
   GDM::      : max scaling in EWCs is          2.76472218628793     
   GDM::      : max rotation in step is        9.492018695431048E-004
   GDM::        grad.step =  -8.451270918018283E-008
   ------- Leaving GDM -- hopefully with a step in the right direction! --------
 
   58    -318.6477266771      1.42E-04  Gap = 88.10 eV  Normal BFGS step
 
   ------------------- Entering Geometric Direct Minimization ------------------
   GDM::trust : actual energy change is       -5.619659759759088E-008
   GDM::trust : predicted energy change was   -1.267690637702742E-007
   GDM::trust : updated trust radius is        0.330000000000000     
   GDM:         diagonal hessian shift is      0.000000000000000E+000
   GDM::PreWSS: input subspace size is                 19
   GDM::PreWSS: working subspace size set to           18
   GDM::PrEWSS: # of linearly dependent vectors =            0
   GDM::PrEWSS: Max dev from orthonormality =   1.384091070921745E-009
   GDM::BFGS:   lowest Hinv e-value    0.227500849447999     
   GDM::BFGS:   highest Hinv e-value    8.52944895830936     
   GDM::      : max scaling in EWCs is          2.76462185903928     
   GDM::      : max rotation in step is        8.002406380987751E-004
   GDM::        grad.step =  -4.335388452192711E-008
   ------- Leaving GDM -- hopefully with a step in the right direction! --------
 
   59    -318.6477267332      8.21E-05  Gap = 88.10 eV  Normal BFGS step
 
   ------------------- Entering Geometric Direct Minimization ------------------
   GDM::trust : actual energy change is       -2.111562480422435E-008
   GDM::trust : predicted energy change was   -6.503082678289066E-008
   GDM::trust : updated trust radius is        0.330000000000000     
   GDM:         diagonal hessian shift is      0.000000000000000E+000
   GDM::PreWSS: input subspace size is                 19
   GDM::PreWSS: working subspace size set to           18
   GDM::PrEWSS: # of linearly dependent vectors =            0
   GDM::PrEWSS: Max dev from orthonormality =   1.184577540225273E-009
   GDM::BFGS:   lowest Hinv e-value    0.224705096615963     
   GDM::BFGS:   highest Hinv e-value    9.94772569324989     
   GDM::      : max scaling in EWCs is          2.76465141961913     
   GDM::      : max rotation in step is        5.411114418853678E-004
   GDM::        grad.step =  -3.879617361729033E-008
   ------- Leaving GDM -- hopefully with a step in the right direction! --------
 
   60    -318.6477267544      5.04E-05  Gap = 88.10 eV  Normal BFGS step
 
   ------------------- Entering Geometric Direct Minimization ------------------
   GDM::trust : actual energy change is        5.248693923931569E-009
   GDM::trust : predicted energy change was   -5.819426042593550E-008
   GDM::trust : updated trust radius is        0.108900000000000     
   GDM::search:  On step            1 .  The current bracket is:
       left   : x =  0.0000E+00, e =      -318.6477267544, g = -0.4402E-04
       current: x =  0.8813E-03, e =      -318.6477267491, g =  0.5593E-04
       right  : x =  0.1000E+04, e =      1000.0000000000, g =  0.1000E+04
       next   : x =  0.3881E-03
   GDM::      : max rotation in step is        2.383144122983171E-004
   ------- Leaving GDM -- hopefully with a step in the right direction! --------
 
   61    -318.6477267491      1.12E-05  Gap = 88.10 eV  Line search: overstep
 
   ------------------- Entering Geometric Direct Minimization ------------------
   GDM::trust : actual energy change is       -8.542940577171976E-009
   GDM::trust : predicted energy change was   -5.819426042593550E-008
   GDM::trust : updated trust radius is        0.108900000000000     
   GDM:         diagonal hessian shift is      0.000000000000000E+000
   GDM::PreWSS: input subspace size is                 19
   GDM::PreWSS: working subspace size set to           18
   GDM::PrEWSS: # of linearly dependent vectors =            0
   GDM::PrEWSS: Max dev from orthonormality =   2.507861106282316E-010
   GDM::BFGS:   lowest Hinv e-value    0.227865445178856     
   GDM::BFGS:   highest Hinv e-value    9.02057100767863     
   GDM::      : max scaling in EWCs is          2.76465446936371     
   GDM::      : max rotation in step is       -1.442822506971645E-004
   GDM::        grad.step =  -5.942158584361818E-009
   ------- Leaving GDM -- hopefully with a step in the right direction! --------
 
   62    -318.6477267629      2.22E-05  Gap = 88.10 eV  Normal BFGS step
 
   ------------------- Entering Geometric Direct Minimization ------------------
   GDM::trust : actual energy change is       -3.659295089164516E-009
   GDM::trust : predicted energy change was   -8.913237876542726E-009
   GDM::trust : updated trust radius is        0.330000000000000     
   GDM:         diagonal hessian shift is      0.000000000000000E+000
   GDM::PreWSS: input subspace size is                 19
   GDM::PreWSS: working subspace size set to           18
   GDM::PrEWSS: # of linearly dependent vectors =            0
   GDM::PrEWSS: Max dev from orthonormality =   1.489798562293032E-010
   GDM::BFGS:   lowest Hinv e-value    0.228643285976461     
   GDM::BFGS:   highest Hinv e-value    9.17752551697890     
   GDM::      : max scaling in EWCs is          2.76467327178892     
   GDM::      : max rotation in step is       -7.019641216617650E-005
   GDM::        grad.step =  -2.207147717548960E-009
   ------- Leaving GDM -- hopefully with a step in the right direction! --------
 
   63    -318.6477267666      9.56E-06  Gap = 88.10 eV  Normal BFGS step
 
   ------------------- Entering Geometric Direct Minimization ------------------
   GDM::trust : actual energy change is       -3.013269633811433E-010
   GDM::trust : predicted energy change was   -3.310721576323439E-009
   GDM::trust : updated trust radius is        0.330000000000000     
   GDM:         diagonal hessian shift is      0.000000000000000E+000
   GDM::PreWSS: input subspace size is                 19
   GDM::PreWSS: working subspace size set to           18
   GDM::PrEWSS: # of linearly dependent vectors =            0
   GDM::PrEWSS: Max dev from orthonormality =   7.401900620207513E-011
   GDM::BFGS:   lowest Hinv e-value    0.219531081917873     
   GDM::BFGS:   highest Hinv e-value    9.06384819113633     
   GDM::      : max scaling in EWCs is          2.76472951724907     
   GDM::      : max rotation in step is       -4.511255098084371E-005
   GDM::        grad.step =  -1.716157231070343E-009
   ------- Leaving GDM -- hopefully with a step in the right direction! --------
 
   64    -318.6477267669      1.40E-05  Gap = 88.10 eV  Normal BFGS step
 
   ------------------- Entering Geometric Direct Minimization ------------------
   GDM::trust : actual energy change is       -4.806111064681318E-010
   GDM::trust : predicted energy change was   -2.574235846605515E-009
   GDM::trust : updated trust radius is        0.330000000000000     
   GDM:         diagonal hessian shift is      0.000000000000000E+000
   GDM::PreWSS: input subspace size is                 19
   GDM::PreWSS: working subspace size set to           18
   GDM::PrEWSS: # of linearly dependent vectors =            0
   GDM::PrEWSS: Max dev from orthonormality =   1.445399598620778E-010
   GDM::BFGS:   lowest Hinv e-value    0.215528158914085     
   GDM::BFGS:   highest Hinv e-value    9.00494547322491     
   GDM::      : max scaling in EWCs is          2.76473092693613     
   GDM::      : max rotation in step is        3.301649143708830E-005
   GDM::        grad.step =  -5.086995347551839E-010
   ------- Leaving GDM -- hopefully with a step in the right direction! --------
 
   65    -318.6477267673      6.03E-06  Gap = 88.10 eV  Normal BFGS step
 
   ------------------- Entering Geometric Direct Minimization ------------------
   GDM::trust : actual energy change is       -2.187903191952500E-010
   GDM::trust : predicted energy change was   -7.630493021327756E-010
   GDM::trust : updated trust radius is        0.330000000000000     
   GDM:         diagonal hessian shift is      0.000000000000000E+000
   GDM::PreWSS: input subspace size is                 19
   GDM::PreWSS: working subspace size set to           18
   GDM::PrEWSS: # of linearly dependent vectors =            1
   GDM::PrEWSS: Max dev from orthonormality =   4.005439729892757E-011
   GDM::BFGS:   lowest Hinv e-value    0.219706585354887     
   GDM::BFGS:   highest Hinv e-value    8.89855239160747     
   GDM::      : max scaling in EWCs is          2.76472021154154     
   GDM::      : max rotation in step is       -9.122377381572854E-006
   GDM::        grad.step =  -4.855151752877739E-011
   ------- Leaving GDM -- hopefully with a step in the right direction! --------
 
   66    -318.6477267676      1.35E-06  Gap = 88.10 eV  Normal BFGS step
 
   ------------------- Entering Geometric Direct Minimization ------------------
   GDM::trust : actual energy change is       -2.478373062331229E-011
   GDM::trust : predicted energy change was   -7.282727629316610E-011
   GDM::trust : updated trust radius is        0.330000000000000     
   GDM:         diagonal hessian shift is      0.000000000000000E+000
   GDM::PreWSS: input subspace size is                 19
   GDM::PreWSS: working subspace size set to           18
   GDM::PrEWSS: # of linearly dependent vectors =            0
   GDM::PrEWSS: Max dev from orthonormality =   1.128988092249927E-009
   GDM::BFGS:   lowest Hinv e-value    0.219296625925528     
   GDM::BFGS:   highest Hinv e-value    8.91293415924186     
   GDM::      : max scaling in EWCs is          2.76472424160586     
   GDM::      : max rotation in step is       -5.590893341553039E-006
   GDM::        grad.step =  -8.417998816783839E-012
   ------- Leaving GDM -- hopefully with a step in the right direction! --------
 
   67    -318.6477267676      9.32E-07  Gap = 88.10 eV  Normal BFGS step
 
   ------------------- Entering Geometric Direct Minimization ------------------
   GDM::trust : actual energy change is       -3.126388037344441E-012
   GDM::trust : predicted energy change was   -1.262699822517576E-011
   GDM::trust : updated trust radius is        0.330000000000000     
   GDM:         diagonal hessian shift is      0.000000000000000E+000
   GDM::PreWSS: input subspace size is                 19
   GDM::PreWSS: working subspace size set to           18
   GDM::PrEWSS: # of linearly dependent vectors =            0
   GDM::PrEWSS: Max dev from orthonormality =   1.817770066414592E-010
   GDM::BFGS:   lowest Hinv e-value    0.220700708124999     
   GDM::BFGS:   highest Hinv e-value    8.91136353682106     
   GDM::      : max scaling in EWCs is          2.76472601090682     
[...]
   GDM::        grad.step =  -2.066900214438260E-012
   ------- Leaving GDM -- hopefully with a step in the right direction! --------
 
   19    -318.7809465778      3.63E-07  Gap = 106.93 eV  Normal BFGS step
 
   ------------------- Entering Geometric Direct Minimization ------------------
   GDM::trust : actual energy change is       -1.989519660128281E-012
   GDM::trust : predicted energy change was   -3.100350321657391E-012
   GDM::trust : updated trust radius is        0.330000000000000     
   GDM:         diagonal hessian shift is      0.000000000000000E+000
   GDM::PreWSS: input subspace size is                 19
   GDM::PreWSS: working subspace size set to           18
   GDM::PrEWSS: # of linearly dependent vectors =           14
   GDM::PrEWSS: Max dev from orthonormality =   3.478324919758968E-010
   GDM::BFGS:   lowest Hinv e-value    0.201381057283106     
   GDM::BFGS:   highest Hinv e-value    6.18272985784968     
   GDM::      : max scaling in EWCs is          2.60205618468879     
   GDM::      : max rotation in step is       -9.755165896095471E-007
   GDM::        grad.step =  -5.133541060646134E-013
   ------- Leaving GDM -- hopefully with a step in the right direction! --------
 
   20    -318.7809465778      2.16E-07  Gap = 106.93 eV  Normal BFGS step
 
   ------------------- Entering Geometric Direct Minimization ------------------
   GDM::trust : actual energy change is        0.000000000000000E+000
   GDM::trust : predicted energy change was   -7.700311590969198E-013
   GDM::trust : updated trust radius is        0.330000000000000     
   GDM:         diagonal hessian shift is      0.000000000000000E+000
   GDM::PreWSS: input subspace size is                 19
   GDM::PreWSS: working subspace size set to           18
   GDM::PrEWSS: # of linearly dependent vectors =           14
   GDM::PrEWSS: Max dev from orthonormality =   2.657454152565908E-010
   GDM::BFGS:   lowest Hinv e-value    0.196758803657923     
   GDM::BFGS:   highest Hinv e-value    6.33081768035537     
   GDM::      : max scaling in EWCs is          2.60205617737128     
   GDM::      : max rotation in step is        3.540665946911900E-007
   GDM::        grad.step =  -1.065028849921600E-013
   ------- Leaving GDM -- hopefully with a step in the right direction! --------
 
   21    -318.7809465778      1.03E-07  Gap = 106.93 eV  Normal BFGS step
 
   ------------------- Entering Geometric Direct Minimization ------------------
   GDM::trust : actual energy change is        2.273736754432321E-013
   GDM::trust : predicted energy change was   -1.597543274882400E-013
   GDM::trust : updated trust radius is        0.108900000000000     
   GDM::WARNING energy changes are now smaller than effective accuracy.
   GDM::        calculation will continue, but THRESH should be increased
   GDM::        or SCF_CONVERGENCE decreased.
   GDM::        effective_thresh =   3.035532179784806E-009
   GDM:         diagonal hessian shift is      0.000000000000000E+000
   GDM::PreWSS: input subspace size is                 19
   GDM::PreWSS: working subspace size set to           18
   GDM::PrEWSS: # of linearly dependent vectors =           14
   GDM::PrEWSS: Max dev from orthonormality =   2.082595068619852E-010
   GDM::BFGS:   lowest Hinv e-value    0.220072127763609     
   GDM::BFGS:   highest Hinv e-value    6.43914575486286     
   GDM::      : max scaling in EWCs is          2.60205614253892     
   GDM::      : max rotation in step is        2.909675345862911E-007
   GDM::        grad.step =  -3.995088882621215E-014
   ------- Leaving GDM -- hopefully with a step in the right direction! --------
 
   22    -318.7809465778      5.41E-08  Gap = 106.93 eV  Normal BFGS step
 
   ------------------- Entering Geometric Direct Minimization ------------------
   GDM::trust : actual energy change is       -2.842170943040401E-013
   GDM::trust : predicted energy change was   -5.992633323931827E-014
   GDM::trust : updated trust radius is        0.330000000000000     
   GDM:         diagonal hessian shift is      0.000000000000000E+000
   GDM::PreWSS: input subspace size is                 19
   GDM::PreWSS: working subspace size set to           18
   GDM::PrEWSS: # of linearly dependent vectors =           13
   GDM::PrEWSS: Max dev from orthonormality =   3.391640423372477E-010
   GDM::BFGS:   lowest Hinv e-value    0.225722009581737     
   GDM::BFGS:   highest Hinv e-value    6.40436685565454     
   GDM::      : max scaling in EWCs is          2.60205610783635     
   GDM::      : max rotation in step is        1.553611416607291E-007
   GDM::        grad.step =  -1.337996461594372E-014
   ------- Leaving GDM -- hopefully with a step in the right direction! --------
 
   23    -318.7809465778      2.86E-08  Gap = 106.93 eV  Normal BFGS step
 
   ------------------- Entering Geometric Direct Minimization ------------------
   GDM::trust : actual energy change is       -4.547473508864641E-013
   GDM::trust : predicted energy change was   -2.006994692391558E-014
   GDM::trust : updated trust radius is        0.330000000000000     
   GDM:         diagonal hessian shift is      0.000000000000000E+000
   GDM::PreWSS: input subspace size is                 19
   GDM::PreWSS: working subspace size set to           18
   GDM::PrEWSS: # of linearly dependent vectors =           13
   GDM::PrEWSS: Max dev from orthonormality =   4.289779573229957E-010
   GDM::BFGS:   lowest Hinv e-value    0.222341265100150     
   GDM::BFGS:   highest Hinv e-value    6.35672788191896     
   GDM::      : max scaling in EWCs is          2.60205642703751     
   GDM::      : max rotation in step is       -9.768046710348982E-008
   GDM::        grad.step =  -1.546323054789527E-014
   ------- Leaving GDM -- hopefully with a step in the right direction! --------
 
   24    -318.7809465778      6.82E-08  Gap = 106.93 eV  Normal BFGS step
 
   ------------------- Entering Geometric Direct Minimization ------------------
   GDM::trust : actual energy change is       -2.842170943040401E-013
   GDM::trust : predicted energy change was   -2.319484582184293E-014
   GDM::trust : updated trust radius is        0.330000000000000     
   GDM:         diagonal hessian shift is      0.000000000000000E+000
   GDM::PreWSS: input subspace size is                 19
   GDM::PreWSS: working subspace size set to           18
   GDM::PrEWSS: # of linearly dependent vectors =           14
   GDM::PrEWSS: Max dev from orthonormality =   1.560734180783285E-011
   GDM::BFGS:   lowest Hinv e-value    0.184278726575442     
   GDM::BFGS:   highest Hinv e-value    6.36966620688231     
   GDM::      : max scaling in EWCs is          2.60205599836312     
   GDM::      : max rotation in step is       -1.098191681446503E-007
   GDM::        grad.step =  -1.030791147429324E-014
   ------- Leaving GDM -- hopefully with a step in the right direction! --------
 
   25    -318.7809465778      4.45E-08  Gap = 106.93 eV  Normal BFGS step
 
   ------------------- Entering Geometric Direct Minimization ------------------
   GDM::trust : actual energy change is        7.958078640513122E-013
   GDM::trust : predicted energy change was   -1.546186721143986E-014
   GDM::trust : updated trust radius is        0.108900000000000     
   GDM::WARNING energy changes are now smaller than effective accuracy.
   GDM::        calculation will continue, but THRESH should be increased
   GDM::        or SCF_CONVERGENCE decreased.
   GDM::        effective_thresh =   3.035532179784806E-009
   GDM:         diagonal hessian shift is      0.000000000000000E+000
   GDM::PreWSS: input subspace size is                 19
   GDM::PreWSS: working subspace size set to           18
   GDM::PrEWSS: # of linearly dependent vectors =           13
   GDM::PrEWSS: Max dev from orthonormality =   5.910336109415937E-011
   GDM::BFGS:   lowest Hinv e-value    0.197266780755401     
   GDM::BFGS:   highest Hinv e-value    6.37840819828534     
   GDM::      : max scaling in EWCs is          2.60205613154534     
   GDM::      : max rotation in step is        1.524301001243228E-008
   GDM::        grad.step =  -1.111370412271751E-015
   ------- Leaving GDM -- hopefully with a step in the right direction! --------
 
   26    -318.7809465778      6.40E-09 Convergence criterion met
 ---------------------------------------
 One-Electron    Energy =  -854.2227682583
 Total Coulomb   Energy =   378.7586733426
 Alpha Exchange  Energy =    -3.5842578853
 Beta  Exchange  Energy =    -3.4389015981
 DFT   Exchange  Energy =   -28.2493087290
 DFT Correlation Energy =    -2.0736725224
 Nuclear Repu.   Energy =   194.0292890727
 Nuclear Attr.   Energy = -1125.5258310222
 Kinetic         Energy =   271.3030627639
 <S^2> = 2.0158
 SCF time:  CPU 106.92 s  wall 12.73 s
 SCF   energy in the final basis set = -318.7809465778
 Total energy in the final basis set = -318.7809465778
 
 --------------------------------------------------------------
 
                    Orbital Energies (a.u.)
 --------------------------------------------------------------
 
 Alpha MOs
 -- Occupied --
-19.181 -19.174 -19.149  -2.049  -2.039  -1.281  -1.262  -1.252
 -1.245  -1.238  -1.227  -1.015  -0.888  -0.797  -0.417  -0.400
 -0.388  -0.356  -0.350  -0.342  -0.287  -0.245  -0.204  -0.171
 -0.169
 -- Virtual --
 -0.095  -0.082  -0.073  -0.071  -0.068  -0.061  -0.030  -0.025
 -0.007   0.007   0.020   0.030   0.035   0.045   0.050   0.060
  0.084   0.090   0.131   0.147   0.157   0.172   0.177   0.184
  0.205   0.211   0.216   0.225   0.233   0.245   0.246   0.263
  0.268   0.274   0.276   0.295   0.315   0.323   0.340   0.375
  0.381   0.475   0.506   0.783   1.147   1.159   1.177   1.198
  1.211   1.248   1.262   1.272   1.320   1.561   1.568   1.659
  1.730   1.785   1.793   1.805   1.818   1.822   1.851   1.867
  1.900   1.908   1.939   1.953   2.337   2.344   3.156   9.224
 10.859
 
 Beta MOs
 -- Occupied --
-19.180 -19.174 -19.150  -2.043  -2.012  -1.277  -1.251  -1.243
 -1.229  -1.193  -1.193  -1.013  -0.889  -0.795  -0.416  -0.398
 -0.385  -0.355  -0.348  -0.341  -0.286  -0.239  -0.184
 -- Virtual --
 -0.096  -0.089  -0.085  -0.064  -0.055  -0.052  -0.045  -0.042
 -0.025  -0.014  -0.001   0.017   0.025   0.034   0.037   0.047
  0.053   0.064   0.089   0.106   0.137   0.152   0.161   0.179
  0.185   0.195   0.211   0.216   0.221   0.230   0.238   0.247
  0.249   0.270   0.271   0.276   0.283   0.298   0.319   0.326
  0.343   0.378   0.388   0.476   0.511   0.786   1.147   1.160
  1.178   1.198   1.213   1.248   1.263   1.272   1.320   1.562
  1.568   1.660   1.731   1.786   1.793   1.804   1.819   1.822
  1.851   1.868   1.901   1.908   1.941   1.954   2.339   2.345
  3.157   9.226  10.860
 --------------------------------------------------------------
 
          Ground-State Mulliken Net Atomic Charges

     Atom                 Charge (a.u.)    Spin (a.u.)
  --------------------------------------------------------
      1 Zr                    0.513250       1.647565
      2 Zr                    1.257626       0.302725
      3 O                    -0.443151       0.054632
      4 O                    -0.853250      -0.008211
      5 O                    -0.474474       0.003289
  --------------------------------------------------------
  Sum of atomic charges =     0.000000
  Sum of spin   charges =     2.000000

 -----------------------------------------------------------------
                    Cartesian Multipole Moments
 -----------------------------------------------------------------
    Charge (ESU x 10^10)
                 0.0000
    Dipole Moment (Debye)
         X      -4.5194      Y      -0.5183      Z      -1.3383
       Tot       4.7418
    Quadrupole Moments (Debye-Ang)
        XX     -66.6990     XY     -12.2357     YY     -62.5292
        XZ      -9.9116     YZ       0.9054     ZZ     -61.3237
    Octopole Moments (Debye-Ang^2)
       XXX     -54.6383    XXY       3.4472    XYY      -0.3740
       YYY      20.9702    XXZ     -14.9876    XYZ      -3.4220
       YYZ      -7.6876    XZZ      -3.3595    YZZ       5.6967
       ZZZ     -41.6366
    Hexadecapole Moments (Debye-Ang^3)
      XXXX   -1059.6405   XXXY     -36.4579   XXYY    -209.6039
      XYYY     -29.0210   YYYY    -239.7265   XXXZ     -29.9778
      XXYZ      -0.4325   XYYZ      -3.4570   YYYZ     -18.5246
      XXZZ    -209.8533   XYZZ      -5.1858   YYZZ     -67.5322
      XZZZ      -1.8691   YZZZ     -16.9522   ZZZZ    -193.8910
 -----------------------------------------------------------------
 Calculating analytic gradient of the SCF energy
 Gradient of SCF Energy
            1           2           3           4           5
    1   0.0000359  -0.0000573  -0.0000163  -0.0000153   0.0000530
    2   0.0000187   0.0000155  -0.0000421  -0.0000225   0.0000305
    3  -0.0000010   0.0000311  -0.0000413  -0.0000269   0.0000381
 Max gradient component =       5.734E-05
 RMS gradient           =       3.320E-05
 Gradient time:  CPU 13.69 s  wall 1.82 s
 Geometry Optimization Parameters
   NAtoms,    NIC,     NZ,  NCons,   NDum,   NFix, NCnnct, MaxDiis
        5      34       0       0       0       0       0       0

 Cartesian Hessian Update
 Hessian Updated using BFGS Update


** GEOMETRY OPTIMIZATION IN DELOCALIZED INTERNAL COORDINATES **
   Searching for a Minimum

   Optimization Cycle:  24

                       Coordinates (Angstroms)
     ATOM                X               Y               Z
      1  Zr       -1.7217431637    0.2425581476    0.4482795270
      2  Zr        0.9537658686   -0.4894240790   -0.2051905248
      3  O         2.2876127581   -0.0234300372    1.1694302193
      4  O        -0.9700554233   -1.3495047465   -0.2208367445
      5  O         2.2480999603    1.0095007151    0.0936675230
   Point Group: c1    Number of degrees of freedom:     9


   Energy is   -318.780946578

 Hessian Updated using BFGS Update

  9 Hessian modes will be used to form the next step
  Hessian Eigenvalues:
     0.001008    0.012256    0.040033    0.052134    0.136851    0.150652
     0.211012    0.216210    0.286214

 Minimum Search - Taking Simple RFO Step
 Searching for Lamda that Minimizes Along All modes
 Value Taken    Lamda =   0.00000000
 Step Taken.  Stepsize is  0.002292

                             Maximum     Tolerance    Cnvgd?
         Gradient           0.000048      0.000300     YES
         Displacement       0.001497      0.001200      NO
         Energy change     -0.000001      0.000001     YES


                       Distance Matrix (Angstroms)
             Zr(  1)   Zr(  2)   O (  3)   O (  4)
   Zr(  2)  2.849767
   O (  3)  4.082370  1.971264
   O (  4)  1.883458  2.107385  3.782026
   O (  5)  4.058769  2.002846  1.491902  4.002542
 
 Final energy is   -318.780946577825     


 ******************************
 **  OPTIMIZATION CONVERGED  **
 ******************************

                       Coordinates (Angstroms)
     ATOM                X               Y               Z
      1  Zr       -1.7217431637    0.2425581476    0.4482795270
      2  Zr        0.9537658686   -0.4894240790   -0.2051905248
      3  O         2.2876127581   -0.0234300372    1.1694302193
      4  O        -0.9700554233   -1.3495047465   -0.2208367445
      5  O         2.2480999603    1.0095007151    0.0936675230

Z-matrix Print:
$molecule
0 3
Zr
O  1 1.971264
O  2 1.491902 1 69.079401
O  1 2.107385 2 136.001855 3 141.801007 0
Zr 4 1.883458 1 90.957693 2 -74.164093 0
$end

 
 --------------------------------------------------------------
 
                    Orbital Energies (a.u.)
 --------------------------------------------------------------
 
 Alpha MOs
 -- Occupied --
-19.181 -19.174 -19.149  -2.049  -2.039  -1.281  -1.262  -1.252
 -1.245  -1.238  -1.227  -1.015  -0.888  -0.797  -0.417  -0.400
 -0.388  -0.356  -0.350  -0.342  -0.287  -0.245  -0.204  -0.171
 -0.169
 -- Virtual --
 -0.095  -0.082  -0.073  -0.071  -0.068  -0.061  -0.030  -0.025
 -0.007   0.007   0.020   0.030   0.035   0.045   0.050   0.060
  0.084   0.090   0.131   0.147   0.157   0.172   0.177   0.184
  0.205   0.211   0.216   0.225   0.233   0.245   0.246   0.263
  0.268   0.274   0.276   0.295   0.315   0.323   0.340   0.375
  0.381   0.475   0.506   0.783   1.147   1.159   1.177   1.198
  1.211   1.248   1.262   1.272   1.320   1.561   1.568   1.659
  1.730   1.785   1.793   1.805   1.818   1.822   1.851   1.867
  1.900   1.908   1.939   1.953   2.337   2.344   3.156   9.224
 10.859
 
 Beta MOs
 -- Occupied --
-19.180 -19.174 -19.150  -2.043  -2.012  -1.277  -1.251  -1.243
 -1.229  -1.193  -1.193  -1.013  -0.889  -0.795  -0.416  -0.398
 -0.385  -0.355  -0.348  -0.341  -0.286  -0.239  -0.184
 -- Virtual --
 -0.096  -0.089  -0.085  -0.064  -0.055  -0.052  -0.045  -0.042
 -0.025  -0.014  -0.001   0.017   0.025   0.034   0.037   0.047
  0.053   0.064   0.089   0.106   0.137   0.152   0.161   0.179
  0.185   0.195   0.211   0.216   0.221   0.230   0.238   0.247
  0.249   0.270   0.271   0.276   0.283   0.298   0.319   0.326
  0.343   0.378   0.388   0.476   0.511   0.786   1.147   1.160
  1.178   1.198   1.213   1.248   1.263   1.272   1.320   1.562
  1.568   1.660   1.731   1.786   1.793   1.804   1.819   1.822
  1.851   1.868   1.901   1.908   1.941   1.954   2.339   2.345
  3.157   9.226  10.860
 --------------------------------------------------------------
 
          Ground-State Mulliken Net Atomic Charges

     Atom                 Charge (a.u.)    Spin (a.u.)
  --------------------------------------------------------
      1 Zr                    0.513250       1.647565
      2 Zr                    1.257626       0.302725
      3 O                    -0.443151       0.054632
      4 O                    -0.853250      -0.008211
      5 O                    -0.474474       0.003289
  --------------------------------------------------------
  Sum of atomic charges =     0.000000
  Sum of spin   charges =     2.000000

 -----------------------------------------------------------------
                    Cartesian Multipole Moments
 -----------------------------------------------------------------
    Charge (ESU x 10^10)
                 0.0000
    Dipole Moment (Debye)
         X      -4.5194      Y      -0.5183      Z      -1.3383
       Tot       4.7418
    Quadrupole Moments (Debye-Ang)
        XX     -66.6990     XY     -12.2357     YY     -62.5292
        XZ      -9.9116     YZ       0.9054     ZZ     -61.3237
    Octopole Moments (Debye-Ang^2)
       XXX     -54.6383    XXY       3.4472    XYY      -0.3740
       YYY      20.9702    XXZ     -14.9876    XYZ      -3.4220
       YYZ      -7.6876    XZZ      -3.3595    YZZ       5.6967
       ZZZ     -41.6366
    Hexadecapole Moments (Debye-Ang^3)
      XXXX   -1059.6405   XXXY     -36.4579   XXYY    -209.6039
      XYYY     -29.0210   YYYY    -239.7265   XXXZ     -29.9778
      XXYZ      -0.4325   XYYZ      -3.4570   YYYZ     -18.5246
      XXZZ    -209.8533   XYZZ      -5.1858   YYZZ     -67.5322
      XZZZ      -1.8691   YZZZ     -16.9522   ZZZZ    -193.8910
 -----------------------------------------------------------------
Archival summary:
1\1\hpc3916\OPT\ProcedureUnspecified\BasisUnspecified\r23(+,3)\liqiuy\FriJan1719:31:312020FriJan1719:31:312020\0\\#,OPT,ProcedureUnspecified,BasisUnspecified,\\56,3\Zr\O,1,1.97126\O,2,1.4919,1,69.0794\O,1,2.10739,2,136.002,3,141.801,0\Zr,4,1.88346,1,90.9577,2,-74.1641,0\\\@

 Total job time:  457.33s(wall), 3433.64s(cpu) 
 Fri Jan 17 19:31:31 2020

        *************************************************************
        *                                                           *
        *  Thank you very much for using Q-Chem.  Have a nice day.  *
        *                                                           *
        *************************************************************


0 sent ACK to 0 
now end server 0 ... 
cleanup process ... done
