
Running Job 1 of 2 ZrOx.in
qchem ZrOx.in_30931.0 /tmp/5732619.priya/ZrOx.save/ 1
/usr/usc/qchem/4.4/bin/mpi/mpirun_qchem -machinefile /usr/usc/qchem/4.4/bin/mpi/machines -np 1 /usr/usc/qchem/4.4/exe/qcprog.exe ZrOx.in_30931.0 /tmp/5732619.priya/ZrOx.save/

Process 0 of 1 is on hpc3918.hpcc.usc.edu - thread support 0
initial socket setup ...start
initial socket setup ...done 
now start server 0 ... 
Check license passed

                  Welcome to Q-Chem
     A Quantum Leap Into The Future Of Chemistry


 Q-Chem 4.4, Q-Chem, Inc., Pleasanton, CA (2016)

 Y. Shao,  Z. Gan,  E. Epifanovsky,  A. T. B. Gilbert,  M. Wormit,  
 J. Kussmann,  A. W. Lange,  A. Behn,  J. Deng,  X. Feng,  D. Ghosh,  
 M. Goldey,  P. R. Horn,  L. D. Jacobson,  I. Kaliman,  F.Rob,  
 R. Z. Khaliullin,  T. Kus,  A. Landau,  J. Liu,  E. I. Proynov,  Y. M. Rhee,  
 R. M. Richard,  M. A. Rohrdanz,  R. P. Steele,  E. J. Sundstrom,  
 H. L. Woodcock III,  P. M. Zimmerman,  D. Zuev,  B. Albrecht,  E. Alguire,  
 B. Austin,  S. A. Baeppler,  G. J. O. Beran,  Y. A. Bernard,  E. Berquist,  
 K. Brandhorst,  K. B. Bravaya,  S. T. Brown,  D. Casanova,  C.-M. Chang,  
 Y. Chen,  S. H. Chien,  K. D. Closser,  M. P. Coons,  D. L. Crittenden,  
 S. Dasgupta,  M. Diedenhofen,  R. A. DiStasio Jr.,  H. Do,  A. D. Dutoi,  
 R. G. Edgar,  P.-T. Fang,  S. Fatehi,  Q. Feng,  L. Fusti-Molnar,  
 A. Ghysels,  A. Golubeva-Zadorozhnaya,  J. Gomes,  A. Gunina,  
 M. W. D. Hanson-Heine,  P. H. P. Harbach,  A. W. Hauser,  E. G. Hohenstein,  
 Z. C. Holden,  K. Hui,  T.-C. Jagau,  H. Ji,  B. Kaduk,  K. Khistyaev,  
 Jaehoon Kim,  Jihan Kim,  R. A. King,  P. Klunzinger,  D. Kosenkov,  
 T. Kowalczyk,  C. M. Krauter,  A. Kunitsa,  K. U. Lao,  A. Laurent,  
 K. V. Lawler,  D. Lefrancois,  S. Lehtola,  S. V. Levchenko,  C. Y. Lin,  
 Y.-S. Lin,  F. Liu,  E. Livshits,  R. C. Lochan,  A. Luenser,  P. Manohar,  
 S. F. Manzer,  S.-P. Mao,  Y. Mao,  N. Mardirossian,  A. V. Marenich,  
 L. A. Martinez-Martinez,  S. A. Maurer,  N. J. Mayhall,  J.-M. Mewes,  
 A. F. Morrison,  K. Nanda,  C. M. Oana,  R. Olivares-Amaya,  D. P. O'Neill,  
 J. A. Parkhill,  T. M. Perrine,  R. Peverati,  P. A. Pieniazek,  F. Plasser,  
 A. Prociuk,  D. R. Rehn,  E. Rosta,  N. J. Russ,  N. Sergueev,  
 S. M. Sharada,  S. Sharma,  D. W. Small,  A. Sodt,  T. Stauch,  T. Stein,  
 D. Stuck,  Y.-C. Su,  A. J. W. Thom,  T. Tsuchimochi,  L. Vogt,  O. Vydrov,  
 T. Wang,  M. A. Watson,  J. Wenzel,  A. White,  C. F. Williams,  
 V. Vanovschi,  S. Yeganeh,  S. R. Yost,  Z.-Q. You,  I. Y. Zhang,  X. Zhang,  
 Y. Zhao,  B. R. Brooks,  G. K. L. Chan,  D. M. Chipman,  C. J. Cramer,  
 W. A. Goddard III,  M. S. Gordon,  W. J. Hehre,  A. Klamt,  
 H. F. Schaefer III,  M. W. Schmidt,  C. D. Sherrill,  D. G. Truhlar,  
 A. Warshel,  X. Xu,  A. Aspuru-Guzik,  R. Baer,  A. T. Bell,  N. A. Besley,  
 J.-D. Chai,  A. Dreuw,  B. D. Dunietz,  T. R. Furlani,  S. R. Gwaltney,  
 C.-P. Hsu,  Y. Jung,  J. Kong,  D. S. Lambrecht,  W. Liang,  C. Ochsenfeld,  
 V. A. Rassolov,  L. V. Slipchenko,  J. E. Subotnik,  T. Van Voorhis,  
 J. M. Herbert,  A. I. Krylov,  P. M. W. Gill,  M. Head-Gordon

 Contributors to earlier versions of Q-Chem not listed above: 
 R. D. Adamson,  J. Baker,  E. F. C. Byrd,  A. K. Chakraborty,  C.-L. Cheng,  
 H. Dachsel,  R. J. Doerksen,  G. Hawkins,  A. Heyden,  S. Hirata,  
 G. Kedziora,  F. J. Keil,  C. Kelley,  P. P. Korambath,  W. Kurlancheek,  
 A. M. Lee,  M. S. Lee,  D. Liotard,  I. Lotan,  P. E. Maslen,  N. Nair,  
 D. Neuhauser,  R. Olson,  B. Peters,  J. Ritchie,  N. E. Schultz,  
 N. Shenvi,  A. C. Simmonett,  K. S. Thanthiriwatte,  Q. Wu,  W. Zhang

 Please cite Q-Chem as follows:
 Y. Shao et al., Mol. Phys. 113, 184-215 (2015)
 DOI: 10.1080/00268976.2014.952696

 Q-Chem 4.4.1 for Intel X86 Linux

 Parts of Q-Chem use Armadillo 5.200.1 (Boston Tea Smuggler).
 http://arma.sourceforge.net/

 Q-Chem begins on Fri Jan 17 19:24:07 2020  

Host: 
0

     Scratch files written to /tmp/5732619.priya/ZrOx.save//
 Jul2716 11668_ 21447  21445 5558   
 Parallel job on  1  processors
Processing $rem in /usr/usc/qchem/4.4/config/preferences.
 MEM_TOTAL  2000 

Checking the input file for inconsistencies... 	...done.

--------------------------------------------------------------
User input:
--------------------------------------------------------------
$comment
--------------------------------------------------------
A SINGLE POINT DFT CALCULATION WITH BASIS SET PROJECTION
--------------------------------------------------------
$end

$molecule
0 1
Zr 1.35360 0.24049 0.00002
Zr -1.35361 0.24051 0.00003
S 0.00000 -1.70561 0.00003
O 0.00004 0.72376 1.31456
O 0.00001 0.72371 -1.31450
O -2.99297 -0.23657 -0.00006
O 2.99298 -0.23653 -0.00005
$end

$rem
JOBTYPE   SP
METHOD   B3LYP
BASIS   GEN
ECP   GEN
MAX_SCF_CYCLES   200
SCF_CONVERGENCE 8
SCF_PRINT 1
PDB_PRINT 2
THRESH 14
VARTHRESH 14
INCDFT FALSE
SYMMETRY False
Sym_ignore True
SCF_ALGORITHM GDM
XC_GRID 000128000302
DFT_D           EMPIRICAL_GRIMME3
DFT_D3_S6       1000
DFT_D3_RS6     1261
DFT_D3_S8      1703
DFT_D3_3BODY    FALSE
$end

$basis
O
6-31+G**
****
S
6-31+G**
****
Zr
LanL2DZ
****
$end

$ecp
Zr
LanL2DZ
****
$end

--------------------------------------------------------------
 ----------------------------------------------------------------
             Standard Nuclear Orientation (Angstroms)
    I     Atom           X                Y                Z
 ----------------------------------------------------------------
    1      Zr      1.3536000000     0.2404900000     0.0000200000
    2      Zr     -1.3536100000     0.2405100000     0.0000300000
    3      S       0.0000000000    -1.7056100000     0.0000300000
    4      O       0.0000400000     0.7237600000     1.3145600000
    5      O       0.0000100000     0.7237100000    -1.3145000000
    6      O      -2.9929700000    -0.2365700000    -0.0000600000
    7      O       2.9929800000    -0.2365300000    -0.0000500000
 ----------------------------------------------------------------
 Nuclear Repulsion Energy =   448.9116119340 hartrees
 There are       36 alpha and       36 beta electrons

 Q-Chem warning in module /home/scratch/svnadmin/11668_zgan/qchem/forms1/BasisType.C, line 1419:

 Setting pure/cartesian flag to 2111 for general basis


 Requested basis set is non-standard
 There are 42 shells and 138 basis functions

 Total QAlloc Memory Limit   2000 MB
 Mega-Array Size        61 MB
 MEM_STATIC part        62 MB

                       Distance Matrix (Angstroms)
             Zr(  1)   Zr(  2)   S (  3)   O (  4)   O (  5)   O (  6)
   Zr(  2)  2.707210
   S (  3)  2.370557  2.370579
   O (  4)  1.947740  1.947791  2.762214
   O (  5)  1.947735  1.947757  2.762170  2.629060
   O (  6)  4.372672  1.707368  3.334059  3.407135  3.407025
   O (  7)  1.707371  4.372689  3.334085  3.407058  3.407009  5.985950

 
 A cutoff of  1.0D-14 yielded    869 shell pairs
 There are      9622 function pairs (     10933 Cartesian)
 
 -------------------------------------------------------
 OpenMP Integral Computing Module                       
 Release: version 1.0, May 2013, Q-Chem Inc. Pittsburgh 
 -------------------------------------------------------
 Integral Job Info:
 Integral job number is                      11
 Integral operator is                         1
 short-range coefficients                     0
 long-range coefficients              100000000
 Omega coefficients                           0
 if combine SR and LR in K                    0
 Integral screening is                        0
 Integral computing path is                   2
 max size of driver memory is            800000
 size of driver memory is                593474
 size of scratch memory is             15166112
 max col of scratch BK array               1296
 max len of scratch array in speh3          155
 max len of scratch index in speh4           18
 max int batch size is                      520
 min int batch size is                       52
 fixed nKL is                                52
 max L of basis functions is                  2
 order of int derivative is                   0
 number of shells is                         42
 number of basis is                         147
 number of cartesian basis is               147
 number of contracted shell pairs           869
 number of primitive shell pairs           4151
 maxK2 (contraction) of shell pair           36
 max number of K2 of shell pair               1
 max number of CS2 of shell pair             70
 max number of PS2 of shell pair            348
 mem total for path MDJ                   39304
 -------------------------------------------------------
 Requested basis set is non-standard
 Compound shells will be simplified
 There are 58 shells and 138 basis functions
 A cutoff of  1.0D-14 yielded   1654 shell pairs
 There are      9574 function pairs (     10885 Cartesian)
 Smallest overlap matrix eigenvalue = 4.82E-04

 Scale SEOQF with 1.000000e-01/1.000000e-01/1.000000e-01

 Standard Electronic Orientation quadrupole field applied
 Nucleus-field energy     =     0.0000000078 hartrees
 Guess MOs from core Hamiltonian diagonalization
 A restricted hybrid HF-DFT SCF calculation will be
 performed using Geometric Direct Minimization
 Exchange:     0.2000 Hartree-Fock + 0.0800 Slater + 0.7200 B88
 Correlation:  0.1900 VWN1RPA + 0.8100 LYP
 Using Euler-Maclaurin-Lebedev (128,302) quadrature formula
 Dispersion:   Grimme D3
 SCF converges when RMS gradient is below 1.0E-08
 Maximum number of minimization steps = 200
 using 12 threads for integral computing 
 -------------------------------------------------------
 OpenMP BLAS3 based DFT computing Module                
 Release: version 1.0, May 2013, Q-Chem Inc. Pittsburgh 
 -------------------------------------------------------
 
   ------------------- Entering Geometric Direct Minimization ------------------
   GDM:         diagonal hessian shift is      0.000000000000000E+000
   GDM::PreWSS: input subspace size is                  1
   GDM::PreWSS: working subspace size set to            1
   GDM::PrEWSS: # of linearly dependent vectors =            0
   GDM::PrEWSS: Max dev from orthonormality =   0.000000000000000E+000
   GDM::BFGS:   lowest Hinv e-value     1.00000000000000     
   GDM::BFGS:   highest Hinv e-value    1.00000000000000     
   GDM::      : max scaling in EWCs is          1.41421356237309     
   GDM::      : max rotation in step is       -0.184152625495169     
   GDM::        grad.step =   -2.68402786553062     
   ------- Leaving GDM -- hopefully with a step in the right direction! --------
 
 ---------------------------------------
  Cycle       Energy        RMS Gradient
 ---------------------------------------
    1    -733.8553909539      3.21E+00  Gap = 0.00 eV  Descent step
 
   ------------------- Entering Geometric Direct Minimization ------------------
   GDM::trust : actual energy change is        -5.24639582472901     
   GDM::trust : predicted energy change was   -0.163350000000000     
   GDM::trust : updated trust radius is        0.330000000000000     
   GDM:         diagonal hessian shift is      0.000000000000000E+000
   GDM::PreWSS: input subspace size is                  2
   GDM::PreWSS: working subspace size set to            2
   GDM::PrEWSS: # of linearly dependent vectors =            0
   GDM::PrEWSS: Max dev from orthonormality =   2.842170943040401E-014
   GDM::BFGS:   lowest Hinv e-value    0.567040936221818     
   GDM::BFGS:   highest Hinv e-value    2.11611903583929     
   GDM::      : max scaling in EWCs is          1.41421356237309     
   GDM::      : max rotation in step is        0.101643774136056     
   GDM::        grad.step =   -2.41089691640979     
   ------- Leaving GDM -- hopefully with a step in the right direction! --------
 
    2    -739.1017867786      1.59E+00  Gap = 0.00 eV  Descent step
 
   ------------------- Entering Geometric Direct Minimization ------------------
   GDM::trust : actual energy change is        -4.68328030953830     
   GDM::trust : predicted energy change was   -0.150426119985298     
   GDM::trust : updated trust radius is        0.330000000000000     
   GDM:         diagonal hessian shift is      0.000000000000000E+000
   GDM::PreWSS: input subspace size is                  3
   GDM::PreWSS: working subspace size set to            3
   GDM::PrEWSS: # of linearly dependent vectors =            0
   GDM::PrEWSS: Max dev from orthonormality =   6.475028846431030E-013
   GDM::BFGS:   lowest Hinv e-value    0.446033906639108     
   GDM::BFGS:   highest Hinv e-value    1.64408061759168     
   GDM::      : max scaling in EWCs is          1.41421356237309     
   GDM::      : max rotation in step is       -8.100533756289817E-002
   GDM::        grad.step =   -2.20821730479053     
   ------- Leaving GDM -- hopefully with a step in the right direction! --------
 
    3    -743.7850670881      1.74E+00  Gap = 0.00 eV  Descent step
 
   ------------------- Entering Geometric Direct Minimization ------------------
   GDM::trust : actual energy change is        -4.30110412307113     
   GDM::trust : predicted energy change was   -0.149248836575800     
   GDM::trust : updated trust radius is        0.330000000000000     
   GDM::search:  On step            1 .  The current bracket is:
       left   : x =  0.0000E+00, e =      -743.7850670881, g = -0.6977E+01
       current: x =  0.3165E+00, e =      -748.0861712112, g = -0.6558E+01
       right  : x =  0.1000E+04, e =      1000.0000000000, g =  0.1000E+04
       next   : x =  0.3165E+01
   GDM::      : max rotation in step is       -0.810053375628982     
   ------- Leaving GDM -- hopefully with a step in the right direction! --------
 
    4    -748.0861712112      5.07E-01  Gap = 0.00 eV  Line search: understep
 
   ------------------- Entering Geometric Direct Minimization ------------------
   GDM::trust : actual energy change is        -11.3826669155991     
   GDM::trust : predicted energy change was   -0.149248836575800     
   GDM::trust : updated trust radius is        0.330000000000000     
   GDM:         diagonal hessian shift is      0.000000000000000E+000
   GDM::PreWSS: input subspace size is                  4
   GDM::PreWSS: working subspace size set to            4
   GDM::PrEWSS: # of linearly dependent vectors =            0
   GDM::PrEWSS: Max dev from orthonormality =   1.975832691902824E-012
   GDM::BFGS:   lowest Hinv e-value    0.171877917851607     
   GDM::BFGS:   highest Hinv e-value    2.47475362891989     
   GDM::      : max scaling in EWCs is          2.82842712474619     
   GDM::      : max rotation in step is        0.369697221343417     
   GDM::        grad.step =   -2.47378494954735     
   ------- Leaving GDM -- hopefully with a step in the right direction! --------
 
    5    -755.1677340037      2.97E+00  Gap = 0.00 eV  Descent step
 
   ------------------- Entering Geometric Direct Minimization ------------------
   GDM::trust : actual energy change is        -4.43792014422468     
   GDM::trust : predicted energy change was   -0.350059606368118     
   GDM::trust : updated trust radius is        0.330000000000000     
   GDM:         diagonal hessian shift is      0.000000000000000E+000
   GDM::PreWSS: input subspace size is                  5
   GDM::PreWSS: working subspace size set to            5
   GDM::PrEWSS: # of linearly dependent vectors =            0
   GDM::PrEWSS: Max dev from orthonormality =   8.330627854213901E-013
   GDM::BFGS:   lowest Hinv e-value    0.374399287744521     
   GDM::BFGS:   highest Hinv e-value    2.42145206442693     
   GDM::      : max scaling in EWCs is          2.82842712474619     
   GDM::      : max rotation in step is       -0.220195552806863     
   GDM::        grad.step =   -1.59340550073093     
   ------- Leaving GDM -- hopefully with a step in the right direction! --------
 
    6    -759.6056541480      2.07E+00  Gap = 0.00 eV  Descent step
 
   ------------------- Entering Geometric Direct Minimization ------------------
   GDM::trust : actual energy change is        -3.01999829388069     
   GDM::trust : predicted energy change was   -0.198139479872462     
   GDM::trust : updated trust radius is        0.330000000000000     
   GDM:         diagonal hessian shift is      0.000000000000000E+000
   GDM::PreWSS: input subspace size is                  6
   GDM::PreWSS: working subspace size set to            6
   GDM::PrEWSS: # of linearly dependent vectors =            0
   GDM::PrEWSS: Max dev from orthonormality =   3.400595777192095E-013
   GDM::BFGS:   lowest Hinv e-value    0.313024775836972     
   GDM::BFGS:   highest Hinv e-value    2.61135373922457     
   GDM::      : max scaling in EWCs is          2.82842712474619     
   GDM::      : max rotation in step is       -0.162538181516112     
   GDM::        grad.step =   -1.31091616190752     
   ------- Leaving GDM -- hopefully with a step in the right direction! --------
 
    7    -762.6256524418      8.04E-01  Gap = 0.00 eV  Descent step
 
   ------------------- Entering Geometric Direct Minimization ------------------
   GDM::trust : actual energy change is        -2.49457182647882     
   GDM::trust : predicted energy change was   -0.162419886763562     
   GDM::trust : updated trust radius is        0.330000000000000     
   GDM:         diagonal hessian shift is      0.000000000000000E+000
   GDM::PreWSS: input subspace size is                  7
   GDM::PreWSS: working subspace size set to            7
   GDM::PrEWSS: # of linearly dependent vectors =            0
   GDM::PrEWSS: Max dev from orthonormality =   9.601069939080276E-013
   GDM::BFGS:   lowest Hinv e-value    0.253887651225112     
   GDM::BFGS:   highest Hinv e-value    3.05182258480343     
   GDM::      : max scaling in EWCs is          2.82842712474619     
   GDM::      : max rotation in step is        0.147991291024875     
   GDM::        grad.step =   -1.22850584760362     
   ------- Leaving GDM -- hopefully with a step in the right direction! --------
 
    8    -765.1202242683      1.26E+00  Gap = 0.00 eV  Descent step
 
   ------------------- Entering Geometric Direct Minimization ------------------
   GDM::trust : actual energy change is        -2.38648842596524     
   GDM::trust : predicted energy change was   -0.142809281983922     
   GDM::trust : updated trust radius is        0.330000000000000     
   GDM:         diagonal hessian shift is      0.000000000000000E+000
   GDM::PreWSS: input subspace size is                  8
   GDM::PreWSS: working subspace size set to            8
   GDM::PrEWSS: # of linearly dependent vectors =            0
   GDM::PrEWSS: Max dev from orthonormality =   1.079508010759511E-012
   GDM::BFGS:   lowest Hinv e-value    0.241587462849893     
   GDM::BFGS:   highest Hinv e-value    2.55871451693592     
   GDM::      : max scaling in EWCs is          2.82842712474619     
   GDM::      : max rotation in step is       -0.370397760558213     
   GDM::        grad.step =   -1.45867076022580     
   ------- Leaving GDM -- hopefully with a step in the right direction! --------
 
    9    -767.5067126943      2.16E+00  Gap = 0.00 eV  Descent step
 
   ------------------- Entering Geometric Direct Minimization ------------------
   GDM::trust : actual energy change is        -2.48546176747129     
   GDM::trust : predicted energy change was   -0.152482311055165     
   GDM::trust : updated trust radius is        0.330000000000000     
   GDM:         diagonal hessian shift is      0.000000000000000E+000
   GDM::PreWSS: input subspace size is                  9
   GDM::PreWSS: working subspace size set to            9
   GDM::PrEWSS: # of linearly dependent vectors =            0
   GDM::PrEWSS: Max dev from orthonormality =   1.360285148410689E-012
   GDM::BFGS:   lowest Hinv e-value    0.212058316665007     
   GDM::BFGS:   highest Hinv e-value    2.58468847109647     
   GDM::      : max scaling in EWCs is          2.82842712474619     
   GDM::      : max rotation in step is        0.553542202741715     
   GDM::        grad.step =   -1.15743999813831     
   ------- Leaving GDM -- hopefully with a step in the right direction! --------
 
   10    -769.9921744618      2.15E+00  Gap = 0.00 eV  Descent step
 
   ------------------- Entering Geometric Direct Minimization ------------------
   GDM::trust : actual energy change is        -2.06581763733766     
   GDM::trust : predicted energy change was   -0.157150532145219     
   GDM::trust : updated trust radius is        0.330000000000000     
   GDM:         diagonal hessian shift is      0.000000000000000E+000
   GDM::PreWSS: input subspace size is                 10
   GDM::PreWSS: working subspace size set to           10
   GDM::PrEWSS: # of linearly dependent vectors =            0
   GDM::PrEWSS: Max dev from orthonormality =   1.494287332759470E-012
   GDM::BFGS:   lowest Hinv e-value    0.210910036283891     
   GDM::BFGS:   highest Hinv e-value    2.51894570527133     
   GDM::      : max scaling in EWCs is          2.82842712474619     
   GDM::      : max rotation in step is       -0.219708549195415     
   GDM::        grad.step =  -0.893268231864871     
   ------- Leaving GDM -- hopefully with a step in the right direction! --------
 
   11    -772.0579920991      6.37E-01  Gap = 0.00 eV  Descent step
 
   ------------------- Entering Geometric Direct Minimization ------------------
   GDM::trust : actual energy change is        -1.71155252144058     
   GDM::trust : predicted energy change was   -0.156012198737518     
   GDM::trust : updated trust radius is        0.330000000000000     
   GDM:         diagonal hessian shift is      0.000000000000000E+000
   GDM::PreWSS: input subspace size is                 11
   GDM::PreWSS: working subspace size set to           11
   GDM::PrEWSS: # of linearly dependent vectors =            0
   GDM::PrEWSS: Max dev from orthonormality =   7.130945139932621E-013
   GDM::BFGS:   lowest Hinv e-value    0.184107518926277     
   GDM::BFGS:   highest Hinv e-value    3.47053450993787     
   GDM::      : max scaling in EWCs is          2.82842712474619     
   GDM::      : max rotation in step is       -0.157594652988493     
   GDM::        grad.step =  -0.840486390768408     
   ------- Leaving GDM -- hopefully with a step in the right direction! --------
 
   12    -773.7695446205      6.97E-01  Gap = 0.00 eV  Descent step
 
   ------------------- Entering Geometric Direct Minimization ------------------
   GDM::trust : actual energy change is        -1.60327984079856     
   GDM::trust : predicted energy change was   -0.136753782480220     
   GDM::trust : updated trust radius is        0.330000000000000     
   GDM:         diagonal hessian shift is      0.000000000000000E+000
   GDM::PreWSS: input subspace size is                 12
   GDM::PreWSS: working subspace size set to           12
   GDM::PrEWSS: # of linearly dependent vectors =            0
   GDM::PrEWSS: Max dev from orthonormality =   1.935951399190117E-012
   GDM::BFGS:   lowest Hinv e-value    0.155015839776412     
   GDM::BFGS:   highest Hinv e-value    2.95288309348268     
   GDM::      : max scaling in EWCs is          2.82842712474619     
   GDM::      : max rotation in step is       -0.326035464212517     
   GDM::        grad.step =  -0.963433007096292     
   ------- Leaving GDM -- hopefully with a step in the right direction! --------
 
   13    -775.3728244613      1.37E+00  Gap = 0.00 eV  Descent step
 
   ------------------- Entering Geometric Direct Minimization ------------------
   GDM::trust : actual energy change is        -1.71403325600249     
   GDM::trust : predicted energy change was   -0.150627736297242     
   GDM::trust : updated trust radius is        0.330000000000000     
   GDM:         diagonal hessian shift is      0.000000000000000E+000
   GDM::PreWSS: input subspace size is                 13
   GDM::PreWSS: working subspace size set to           13
   GDM::PrEWSS: # of linearly dependent vectors =            0
   GDM::PrEWSS: Max dev from orthonormality =   4.029054867515924E-012
   GDM::BFGS:   lowest Hinv e-value    0.154431087023596     
   GDM::BFGS:   highest Hinv e-value    3.40353487219167     
   GDM::      : max scaling in EWCs is          2.82842712474619     
   GDM::      : max rotation in step is       -0.211474025685822     
   GDM::        grad.step =  -0.826830459078423     
   ------- Leaving GDM -- hopefully with a step in the right direction! --------
 
   14    -777.0868577173      9.11E-01  Gap = 0.00 eV  Descent step
 
   ------------------- Entering Geometric Direct Minimization ------------------
   GDM::trust : actual energy change is        -1.53006700123274     
   GDM::trust : predicted energy change was   -0.151302098000178     
   GDM::trust : updated trust radius is        0.330000000000000     
   GDM:         diagonal hessian shift is      0.000000000000000E+000
   GDM::PreWSS: input subspace size is                 14
   GDM::PreWSS: working subspace size set to           14
   GDM::PrEWSS: # of linearly dependent vectors =            0
   GDM::PrEWSS: Max dev from orthonormality =   1.274133576423253E-012
   GDM::BFGS:   lowest Hinv e-value    0.130561433363192     
   GDM::BFGS:   highest Hinv e-value    4.13867969734475     
   GDM::      : max scaling in EWCs is          2.82842712474619     
   GDM::      : max rotation in step is        0.484439983765339     
   GDM::        grad.step =  -0.840456157088996     
   ------- Leaving GDM -- hopefully with a step in the right direction! --------
 
   15    -778.6169247186      1.32E+00  Gap = 0.00 eV  Descent step
 
   ------------------- Entering Geometric Direct Minimization ------------------
   GDM::trust : actual energy change is        -1.54521195943812     
   GDM::trust : predicted energy change was   -0.156487764631915     
   GDM::trust : updated trust radius is        0.330000000000000     
   GDM:         diagonal hessian shift is      0.000000000000000E+000
   GDM::PreWSS: input subspace size is                 15
   GDM::PreWSS: working subspace size set to           15
   GDM::PrEWSS: # of linearly dependent vectors =            0
   GDM::PrEWSS: Max dev from orthonormality =   1.192195647758965E-012
   GDM::BFGS:   lowest Hinv e-value    0.139977830245579     
   GDM::BFGS:   highest Hinv e-value    4.72246186560016     
   GDM::      : max scaling in EWCs is          2.82842712474619     
   GDM::      : max rotation in step is        0.274496898997839     
   GDM::        grad.step =  -0.653149834259602     
   ------- Leaving GDM -- hopefully with a step in the right direction! --------
 
   16    -780.1621366780      5.82E-01  Gap = 0.00 eV  Descent step
 
   ------------------- Entering Geometric Direct Minimization ------------------
   GDM::trust : actual energy change is        -1.25212610883511     
   GDM::trust : predicted energy change was   -0.159697066083397     
   GDM::trust : updated trust radius is        0.330000000000000     
   GDM:         diagonal hessian shift is      0.000000000000000E+000
   GDM::PreWSS: input subspace size is                 16
   GDM::PreWSS: working subspace size set to           16
   GDM::PrEWSS: # of linearly dependent vectors =            0
   GDM::PrEWSS: Max dev from orthonormality =   1.203797478366297E-012
   GDM::BFGS:   lowest Hinv e-value    0.167090763998627     
   GDM::BFGS:   highest Hinv e-value    6.21473260992206     
   GDM::      : max scaling in EWCs is          2.82842712474619     
   GDM::      : max rotation in step is        0.288576628058213     
   GDM::        grad.step =  -0.602501353104501     
   ------- Leaving GDM -- hopefully with a step in the right direction! --------
 
   17    -781.4142627868      6.80E-01  Gap = 0.00 eV  Descent step
 
   ------------------- Entering Geometric Direct Minimization ------------------
   GDM::trust : actual energy change is        -1.16207762737668     
   GDM::trust : predicted energy change was   -0.134097008383533     
   GDM::trust : updated trust radius is        0.330000000000000     
   GDM:         diagonal hessian shift is      0.000000000000000E+000
   GDM::PreWSS: input subspace size is                 17
   GDM::PreWSS: working subspace size set to           17
   GDM::PrEWSS: # of linearly dependent vectors =            0
   GDM::PrEWSS: Max dev from orthonormality =   1.079570460804646E-012
   GDM::BFGS:   lowest Hinv e-value    0.155363915541792     
   GDM::BFGS:   highest Hinv e-value    5.67317180794747     
   GDM::      : max scaling in EWCs is          2.82842712474619     
   GDM::      : max rotation in step is        0.576393646296372     
   GDM::        grad.step =  -0.698344019640274     
   ------- Leaving GDM -- hopefully with a step in the right direction! --------
 
   18    -782.5763404142      1.31E+00  Gap = 0.00 eV  Descent step
 
   ------------------- Entering Geometric Direct Minimization ------------------
   GDM::trust : actual energy change is        -1.02091589642657     
   GDM::trust : predicted energy change was   -0.169402613663014     
   GDM::trust : updated trust radius is        0.330000000000000     
   GDM:         diagonal hessian shift is      0.000000000000000E+000
   GDM::PreWSS: input subspace size is                 18
   GDM::PreWSS: working subspace size set to           18
   GDM::PrEWSS: # of linearly dependent vectors =            0
   GDM::PrEWSS: Max dev from orthonormality =   1.341322886094787E-012
   GDM::BFGS:   lowest Hinv e-value    0.134763465421835     
   GDM::BFGS:   highest Hinv e-value    6.28869072120318     
   GDM::      : max scaling in EWCs is          2.82842712474619     
   GDM::      : max rotation in step is       -0.153998179943331     
   GDM::        grad.step =  -0.536338873281263     
   ------- Leaving GDM -- hopefully with a step in the right direction! --------
 
   19    -783.5972563106      4.82E-01  Gap = 0.00 eV  Descent step
 
   ------------------- Entering Geometric Direct Minimization ------------------
   GDM::trust : actual energy change is       -0.994788271600896     
   GDM::trust : predicted energy change was   -0.206844784188966     
   GDM::trust : updated trust radius is        0.330000000000000     
   GDM:         diagonal hessian shift is      0.000000000000000E+000
   GDM::PreWSS: input subspace size is                 19
   GDM::PreWSS: working subspace size set to           18
   GDM::PrEWSS: # of linearly dependent vectors =            0
   GDM::PrEWSS: Max dev from orthonormality =   9.545420009970940E-013
   GDM::BFGS:   lowest Hinv e-value    0.109834747170762     
   GDM::BFGS:   highest Hinv e-value    6.78753976375935     
   GDM::      : max scaling in EWCs is          2.82842712474619     
   GDM::      : max rotation in step is       -0.544428187488478     
   GDM::        grad.step =  -0.633181130315942     
   ------- Leaving GDM -- hopefully with a step in the right direction! --------
 
   20    -784.5920445822      1.12E+00  Gap = 0.00 eV  Descent step
 
   ------------------- Entering Geometric Direct Minimization ------------------
   GDM::trust : actual energy change is       -0.816494152135192     
   GDM::trust : predicted energy change was   -0.195282659799247     
   GDM::trust : updated trust radius is        0.330000000000000     
   GDM:         diagonal hessian shift is      0.000000000000000E+000
   GDM::PreWSS: input subspace size is                 19
   GDM::PreWSS: working subspace size set to           18
   GDM::PrEWSS: # of linearly dependent vectors =            0
   GDM::PrEWSS: Max dev from orthonormality =   1.802962293351307E-012
   GDM::BFGS:   lowest Hinv e-value    0.146564101614246     
   GDM::BFGS:   highest Hinv e-value    7.88207997507199     
   GDM::      : max scaling in EWCs is          2.82842712474619     
   GDM::      : max rotation in step is       -0.607748913206218     
   GDM::        grad.step =  -0.889724967591943     
   ------- Leaving GDM -- hopefully with a step in the right direction! --------
 
   21    -785.4085387344      1.76E+00  Gap = 0.00 eV  Descent step
 
   ------------------- Entering Geometric Direct Minimization ------------------
   GDM::trust : actual energy change is        -1.41045834843919     
   GDM::trust : predicted energy change was   -0.247780238256491     
   GDM::trust : updated trust radius is        0.330000000000000     
   GDM:         diagonal hessian shift is      0.000000000000000E+000
   GDM::PreWSS: input subspace size is                 19
   GDM::PreWSS: working subspace size set to           18
   GDM::PrEWSS: # of linearly dependent vectors =            0
   GDM::PrEWSS: Max dev from orthonormality =   1.300527394110240E-012
   GDM::BFGS:   lowest Hinv e-value    0.129446023017687     
   GDM::BFGS:   highest Hinv e-value    6.76056059153899     
   GDM::      : max scaling in EWCs is          2.82842712474619     
   GDM::      : max rotation in step is       -0.405107711412743     
   GDM::        grad.step =  -0.635228166326663     
   ------- Leaving GDM -- hopefully with a step in the right direction! --------
 
   22    -786.8189970828      1.23E+00  Gap = 0.00 eV  Descent step
 
   ------------------- Entering Geometric Direct Minimization ------------------
   GDM::trust : actual energy change is        -1.10660132422754     
   GDM::trust : predicted energy change was   -0.195365965485261     
   GDM::trust : updated trust radius is        0.330000000000000     
   GDM:         diagonal hessian shift is      0.000000000000000E+000
   GDM::PreWSS: input subspace size is                 19
   GDM::PreWSS: working subspace size set to           18
   GDM::PrEWSS: # of linearly dependent vectors =            0
   GDM::PrEWSS: Max dev from orthonormality =   1.844989439003797E-012
   GDM::BFGS:   lowest Hinv e-value    0.157725730957496     
   GDM::BFGS:   highest Hinv e-value    7.09681425497637     
   GDM::      : max scaling in EWCs is          2.82842712474619     
   GDM::      : max rotation in step is       -0.352694086515559     
   GDM::        grad.step =  -0.450664875582659     
   ------- Leaving GDM -- hopefully with a step in the right direction! --------
 
   23    -787.9255984070      5.16E-01  Gap = 0.00 eV  Descent step
 
   ------------------- Entering Geometric Direct Minimization ------------------
   GDM::trust : actual energy change is       -0.788982664182072     
   GDM::trust : predicted energy change was   -0.181302284353428     
   GDM::trust : updated trust radius is        0.330000000000000     
   GDM:         diagonal hessian shift is      0.000000000000000E+000
   GDM::PreWSS: input subspace size is                 19
   GDM::PreWSS: working subspace size set to           18
   GDM::PrEWSS: # of linearly dependent vectors =            0
   GDM::PrEWSS: Max dev from orthonormality =   9.835673941971379E-013
   GDM::BFGS:   lowest Hinv e-value    0.162351052690017     
   GDM::BFGS:   highest Hinv e-value    6.99802026806108     
   GDM::      : max scaling in EWCs is          2.82842712474619     
   GDM::      : max rotation in step is       -0.216094217680527     
   GDM::        grad.step =  -0.357396544263204     
   ------- Leaving GDM -- hopefully with a step in the right direction! --------
 
   24    -788.7145810712      5.35E-01  Gap = 0.00 eV  Descent step
 
   ------------------- Entering Geometric Direct Minimization ------------------
   GDM::trust : actual energy change is       -0.663902797327523     
   GDM::trust : predicted energy change was   -0.148122716698645     
   GDM::trust : updated trust radius is        0.330000000000000     
   GDM:         diagonal hessian shift is      0.000000000000000E+000
   GDM::PreWSS: input subspace size is                 19
   GDM::PreWSS: working subspace size set to           18
   GDM::PrEWSS: # of linearly dependent vectors =            0
   GDM::PrEWSS: Max dev from orthonormality =   5.629698096587532E-013
   GDM::BFGS:   lowest Hinv e-value    9.873036363935432E-002
   GDM::BFGS:   highest Hinv e-value    7.78908889555847     
   GDM::      : max scaling in EWCs is          2.82842712474619     
   GDM::      : max rotation in step is       -0.524071004492149     
   GDM::        grad.step =  -0.448629562588092     
   ------- Leaving GDM -- hopefully with a step in the right direction! --------
 
   25    -789.3784838686      7.63E-01  Gap = 0.00 eV  Descent step
 
   ------------------- Entering Geometric Direct Minimization ------------------
   GDM::trust : actual energy change is       -0.287032050931316     
   GDM::trust : predicted energy change was   -0.168873761457345     
   GDM::trust : updated trust radius is        0.330000000000000     
   GDM:         diagonal hessian shift is      0.000000000000000E+000
   GDM::PreWSS: input subspace size is                 19
   GDM::PreWSS: working subspace size set to           18
   GDM::PrEWSS: # of linearly dependent vectors =            0
   GDM::PrEWSS: Max dev from orthonormality =   2.735763005023983E-013
   GDM::BFGS:   lowest Hinv e-value    7.548807434551189E-002
   GDM::BFGS:   highest Hinv e-value    10.7659192740171     
   GDM::      : max scaling in EWCs is          2.82842712474619     
   GDM::      : max rotation in step is       -0.282072875412209     
   GDM::        grad.step =  -0.612906167186135     
   ------- Leaving GDM -- hopefully with a step in the right direction! --------
 
   26    -789.6655159195      6.49E-01  Gap = 0.00 eV  Descent step
 
   ------------------- Entering Geometric Direct Minimization ------------------
   GDM::trust : actual energy change is       -0.173704518843465     
   GDM::trust : predicted energy change was   -0.587529087416114     
   GDM::trust : updated trust radius is        0.330000000000000     
   GDM:         diagonal hessian shift is      0.000000000000000E+000
   GDM::PreWSS: input subspace size is                 19
   GDM::PreWSS: working subspace size set to           18
   GDM::PrEWSS: # of linearly dependent vectors =            0
   GDM::PrEWSS: Max dev from orthonormality =   4.041801615617402E-013
   GDM::BFGS:   lowest Hinv e-value    7.458131884779046E-002
   GDM::BFGS:   highest Hinv e-value    8.50045501925098     
   GDM::      : max scaling in EWCs is          2.82842712474619     
   GDM::      : max rotation in step is        0.591117051403590     
   GDM::        grad.step =  -0.882589391324182     
   ------- Leaving GDM -- hopefully with a step in the right direction! --------
 
   27    -789.8392204383      1.96E+00  Gap = 0.00 eV  Descent step
 
   ------------------- Entering Geometric Direct Minimization ------------------
   GDM::trust : actual energy change is       -0.181709242317879     
   GDM::trust : predicted energy change was   -0.720287944800225     
   GDM::trust : updated trust radius is        0.330000000000000     
   GDM:         diagonal hessian shift is      0.000000000000000E+000
   GDM::PreWSS: input subspace size is                 19
   GDM::PreWSS: working subspace size set to           18
   GDM::PrEWSS: # of linearly dependent vectors =            0
   GDM::PrEWSS: Max dev from orthonormality =   3.602743103847672E-013
   GDM::BFGS:   lowest Hinv e-value    6.277652414120383E-002
   GDM::BFGS:   highest Hinv e-value    10.5131666569838     
   GDM::      : max scaling in EWCs is          2.82842712474619     
   GDM::      : max rotation in step is        0.447264048680886     
   GDM::        grad.step =  -0.966807198557385     
   ------- Leaving GDM -- hopefully with a step in the right direction! --------
 
   28    -790.0209296806      1.60E+00  Gap = 0.00 eV  Descent step
 
   ------------------- Entering Geometric Direct Minimization ------------------
   GDM::trust : actual energy change is       -0.203378545008150     
   GDM::trust : predicted energy change was   -0.862590233765170     
   GDM::trust : updated trust radius is        0.330000000000000     
   GDM:         diagonal hessian shift is      0.000000000000000E+000
   GDM::PreWSS: input subspace size is                 19
   GDM::PreWSS: working subspace size set to           18
   GDM::PrEWSS: # of linearly dependent vectors =            0
   GDM::PrEWSS: Max dev from orthonormality =   2.729899639675182E-013
   GDM::BFGS:   lowest Hinv e-value    8.546732149282509E-002
   GDM::BFGS:   highest Hinv e-value    12.0886294573635     
   GDM::      : max scaling in EWCs is          2.82842712474619     
   GDM::      : max rotation in step is       -0.314195621759195     
   GDM::        grad.step =  -0.713317712520734     
   ------- Leaving GDM -- hopefully with a step in the right direction! --------
 
   29    -790.2243082257      7.28E-01  Gap = 0.00 eV  Descent step
 
   ------------------- Entering Geometric Direct Minimization ------------------
   GDM::trust : actual energy change is       -0.461325765055221     
   GDM::trust : predicted energy change was   -0.583298872170790     
   GDM::trust : updated trust radius is        0.330000000000000     
   GDM:         diagonal hessian shift is      0.000000000000000E+000
   GDM::PreWSS: input subspace size is                 19
   GDM::PreWSS: working subspace size set to           18
   GDM::PrEWSS: # of linearly dependent vectors =            0
   GDM::PrEWSS: Max dev from orthonormality =   1.037919750146443E-013
   GDM::BFGS:   lowest Hinv e-value    7.450579353732323E-002
   GDM::BFGS:   highest Hinv e-value    9.15526392560764     
   GDM::      : max scaling in EWCs is          2.82842712474619     
   GDM::      : max rotation in step is        0.356906501830521     
   GDM::        grad.step =  -0.466984210857941     
   ------- Leaving GDM -- hopefully with a step in the right direction! --------
 
   30    -790.6856339907      5.49E-01  Gap = 0.00 eV  Descent step
 
   ------------------- Entering Geometric Direct Minimization ------------------
   GDM::trust : actual energy change is       -6.885179706193867E-002
   GDM::trust : predicted energy change was   -0.476729704808319     
   GDM::trust : updated trust radius is        0.330000000000000     
   GDM:         diagonal hessian shift is      0.000000000000000E+000
   GDM::PreWSS: input subspace size is                 19
   GDM::PreWSS: working subspace size set to           18
   GDM::PrEWSS: # of linearly dependent vectors =            0
   GDM::PrEWSS: Max dev from orthonormality =   1.974809205051997E-014
   GDM::BFGS:   lowest Hinv e-value    7.824506497546828E-002
   GDM::BFGS:   highest Hinv e-value    11.3124009284504     
   GDM::      : max scaling in EWCs is          2.82842712474619     
   GDM::      : max rotation in step is       -0.446383881020878     
   GDM::        grad.step =  -0.658319353895213     
   ------- Leaving GDM -- hopefully with a step in the right direction! --------
 
   31    -790.7544857878      9.54E-01  Gap = 0.00 eV  Descent step
 
   ------------------- Entering Geometric Direct Minimization ------------------
   GDM::trust : actual energy change is       -0.200137448963915     
   GDM::trust : predicted energy change was   -0.674705217650734     
   GDM::trust : updated trust radius is        0.330000000000000     
   GDM:         diagonal hessian shift is      0.000000000000000E+000
   GDM::PreWSS: input subspace size is                 19
   GDM::PreWSS: working subspace size set to           18
   GDM::PrEWSS: # of linearly dependent vectors =            0
   GDM::PrEWSS: Max dev from orthonormality =   8.943887297441222E-014
   GDM::BFGS:   lowest Hinv e-value    8.597606288255086E-002
   GDM::BFGS:   highest Hinv e-value    10.1145480826243     
   GDM::      : max scaling in EWCs is          2.82842712474619     
   GDM::      : max rotation in step is        0.298251984901087     
   GDM::        grad.step =  -0.511435392024544     
   ------- Leaving GDM -- hopefully with a step in the right direction! --------
 
   32    -790.9546232367      5.42E-01  Gap = 0.00 eV  Descent step
 
   ------------------- Entering Geometric Direct Minimization ------------------
   GDM::trust : actual energy change is       -0.158670676451266     
   GDM::trust : predicted energy change was   -0.550303443645272     
   GDM::trust : updated trust radius is        0.330000000000000     
   GDM:         diagonal hessian shift is      0.000000000000000E+000
   GDM::PreWSS: input subspace size is                 19
   GDM::PreWSS: working subspace size set to           18
   GDM::PrEWSS: # of linearly dependent vectors =            0
   GDM::PrEWSS: Max dev from orthonormality =   3.662348202482235E-014
   GDM::BFGS:   lowest Hinv e-value    0.101630999505248     
   GDM::BFGS:   highest Hinv e-value    8.30350529791951     
   GDM::      : max scaling in EWCs is          2.82842712474619     
   GDM::      : max rotation in step is        0.262173949610886     
   GDM::        grad.step =  -0.514070048399032     
   ------- Leaving GDM -- hopefully with a step in the right direction! --------
 
   33    -791.1132939132      6.99E-01  Gap = 0.00 eV  Descent step
 
   ------------------- Entering Geometric Direct Minimization ------------------
   GDM::trust : actual energy change is       -0.401780545727092     
   GDM::trust : predicted energy change was   -0.413133797806505     
   GDM::trust : updated trust radius is        0.330000000000000     
   GDM:         diagonal hessian shift is      0.000000000000000E+000
   GDM::PreWSS: input subspace size is                 19
   GDM::PreWSS: working subspace size set to           18
   GDM::PrEWSS: # of linearly dependent vectors =            0
   GDM::PrEWSS: Max dev from orthonormality =   7.865930129469234E-014
   GDM::BFGS:   lowest Hinv e-value    7.772301036365790E-002
   GDM::BFGS:   highest Hinv e-value    8.27171188342945     
   GDM::      : max scaling in EWCs is          2.82842712474619     
   GDM::      : max rotation in step is       -0.460380637637039     
   GDM::        grad.step =  -0.426095730901757     
   ------- Leaving GDM -- hopefully with a step in the right direction! --------
 
   34    -791.5150744589      6.65E-01  Gap = 0.00 eV  Descent step
 
   ------------------- Entering Geometric Direct Minimization ------------------
   GDM::trust : actual energy change is       -0.282798553676116     
   GDM::trust : predicted energy change was   -0.344090473180103     
   GDM::trust : updated trust radius is        0.330000000000000     
   GDM:         diagonal hessian shift is      0.000000000000000E+000
   GDM::PreWSS: input subspace size is                 19
   GDM::PreWSS: working subspace size set to           18
   GDM::PrEWSS: # of linearly dependent vectors =            0
   GDM::PrEWSS: Max dev from orthonormality =   3.126665593100597E-014
   GDM::BFGS:   lowest Hinv e-value    7.877920389159562E-002
   GDM::BFGS:   highest Hinv e-value    8.03309008939260     
   GDM::      : max scaling in EWCs is          2.82842712474619     
   GDM::      : max rotation in step is        0.619538183672685     
   GDM::        grad.step =  -0.429355437640100     
   ------- Leaving GDM -- hopefully with a step in the right direction! --------
 
   35    -791.7978730126      8.64E-01  Gap = 0.00 eV  Descent step
 
   ------------------- Entering Geometric Direct Minimization ------------------
   GDM::trust : actual energy change is        0.163457869027525     
   GDM::trust : predicted energy change was   -0.558505448221994     
   GDM::trust : updated trust radius is        0.108900000000000     
   GDM::search:  On step            1 .  The current bracket is:
       left   : x =  0.0000E+00, e =      -791.7978730126, g = -0.5735E+00
       current: x =  0.7487E+00, e =      -791.6344151436, g =  0.7262E+00
       right  : x =  0.1000E+04, e =      1000.0000000000, g =  0.1000E+04
       next   : x =  0.2711E+00
   GDM::      : max rotation in step is        0.224355699335439     
   ------- Leaving GDM -- hopefully with a step in the right direction! --------
 
   36    -791.6344151436      4.32E-02  Gap = 0.00 eV  Line search: overstep
 
   ------------------- Entering Geometric Direct Minimization ------------------
   GDM::trust : actual energy change is       -0.184176934291941     
   GDM::trust : predicted energy change was   -0.558505448221994     
   GDM::trust : updated trust radius is        0.108900000000000     
   GDM:         diagonal hessian shift is      0.000000000000000E+000
   GDM::PreWSS: input subspace size is                 19
   GDM::PreWSS: working subspace size set to           18
   GDM::PrEWSS: # of linearly dependent vectors =            0
   GDM::PrEWSS: Max dev from orthonormality =   2.542410726391608E-014
   GDM::BFGS:   lowest Hinv e-value    0.106135655704525     
   GDM::BFGS:   highest Hinv e-value    6.85755714566864     
   GDM::      : max scaling in EWCs is          2.82842712474619     
   GDM::      : max rotation in step is       -6.265115551291539E-002
   GDM::        grad.step =  -5.930822363199062E-002
   ------- Leaving GDM -- hopefully with a step in the right direction! --------
 
   37    -791.9820499469      1.32E-01  Gap = 0.00 eV  Descent step
 
   ------------------- Entering Geometric Direct Minimization ------------------
   GDM::trust : actual energy change is       -9.535255635034900E-002
   GDM::trust : predicted energy change was   -1.763004302275965E-002
   GDM::trust : updated trust radius is        0.330000000000000     
   GDM:         diagonal hessian shift is      0.000000000000000E+000
   GDM::PreWSS: input subspace size is                 19
   GDM::PreWSS: working subspace size set to           18
   GDM::PrEWSS: # of linearly dependent vectors =            0
   GDM::PrEWSS: Max dev from orthonormality =   5.051514762044462E-014
   GDM::BFGS:   lowest Hinv e-value    0.111946430264089     
   GDM::BFGS:   highest Hinv e-value    6.04162646385894     
   GDM::      : max scaling in EWCs is          2.82842712474619     
   GDM::      : max rotation in step is        0.259780472382513     
   GDM::        grad.step =  -0.125533361693611     
   ------- Leaving GDM -- hopefully with a step in the right direction! --------
 
   38    -792.0774025032      1.14E-01  Gap = 0.00 eV  Descent step
 
   ------------------- Entering Geometric Direct Minimization ------------------
   GDM::trust : actual energy change is       -0.117782430699890     
   GDM::trust : predicted energy change was   -0.161920509304229     
   GDM::trust : updated trust radius is        0.330000000000000     
   GDM:         diagonal hessian shift is      0.000000000000000E+000
   GDM::PreWSS: input subspace size is                 19
   GDM::PreWSS: working subspace size set to           18
   GDM::PrEWSS: # of linearly dependent vectors =            0
   GDM::PrEWSS: Max dev from orthonormality =   2.466429838143824E-014
   GDM::BFGS:   lowest Hinv e-value    0.116792145116496     
   GDM::BFGS:   highest Hinv e-value    7.62862437819748     
   GDM::      : max scaling in EWCs is          2.82842712474619     
   GDM::      : max rotation in step is       -0.590996570087471     
   GDM::        grad.step =  -0.176578344197583     
   ------- Leaving GDM -- hopefully with a step in the right direction! --------
 
   39    -792.1951849339      3.39E-01  Gap = 0.00 eV  Descent step
 
   ------------------- Entering Geometric Direct Minimization ------------------
   GDM::trust : actual energy change is        0.482610505418620     
   GDM::trust : predicted energy change was   -0.469110667069809     
   GDM::trust : updated trust radius is        0.108900000000000     
   GDM::search:  On step            1 .  The current bracket is:
       left   : x =  0.0000E+00, e =      -792.1951849339, g = -0.2490E+00
       current: x =  0.7091E+00, e =      -791.7125744285, g =  0.8197E+00
       right  : x =  0.1000E+04, e =      1000.0000000000, g =  0.1000E+04
       next   : x =  0.9497E-01
   GDM::      : max rotation in step is       -7.915576532677711E-002
   ------- Leaving GDM -- hopefully with a step in the right direction! --------
 
   40    -791.7125744285      1.64E-01  Gap = -0.00 eV  Line search: overstep
 
   ------------------- Entering Geometric Direct Minimization ------------------
   GDM::trust : actual energy change is       -3.436493663934925E-002
   GDM::trust : predicted energy change was   -0.469110667069809     
   GDM::trust : updated trust radius is        0.108900000000000     
   GDM:         diagonal hessian shift is      0.000000000000000E+000
   GDM::PreWSS: input subspace size is                 19
   GDM::PreWSS: working subspace size set to           18
   GDM::PrEWSS: # of linearly dependent vectors =            0
   GDM::PrEWSS: Max dev from orthonormality =   8.463021949900451E-014
   GDM::BFGS:   lowest Hinv e-value    0.132864222962588     
   GDM::BFGS:   highest Hinv e-value    6.42076915192715     
   GDM::      : max scaling in EWCs is          2.82842712474619     
   GDM::      : max rotation in step is       -0.165780233824460     
   GDM::        grad.step =  -2.773570039648271E-002
   ------- Leaving GDM -- hopefully with a step in the right direction! --------
 
   41    -792.2295498706      1.37E-01  Gap = 0.00 eV  Descent step
 
   ------------------- Entering Geometric Direct Minimization ------------------
   GDM::trust : actual energy change is       -7.708553792895145E-003
   GDM::trust : predicted energy change was   -3.493425342055623E-002
   GDM::trust : updated trust radius is        0.330000000000000     
   GDM:         diagonal hessian shift is      0.000000000000000E+000
   GDM::PreWSS: input subspace size is                 19
   GDM::PreWSS: working subspace size set to           18
   GDM::PrEWSS: # of linearly dependent vectors =            0
   GDM::PrEWSS: Max dev from orthonormality =   1.182665076981948E-013
   GDM::BFGS:   lowest Hinv e-value    0.121416484071792     
   GDM::BFGS:   highest Hinv e-value    5.71034875701231     
   GDM::      : max scaling in EWCs is          2.82842712474619     
   GDM::      : max rotation in step is        0.350121633086920     
   GDM::        grad.step =  -5.585739570389305E-002
   ------- Leaving GDM -- hopefully with a step in the right direction! --------
 
   42    -792.2372584244      2.69E-01  Gap = 0.00 eV  Normal BFGS step
 
   ------------------- Entering Geometric Direct Minimization ------------------
   GDM::trust : actual energy change is        3.317681733449263E-002
   GDM::trust : predicted energy change was   -8.378609355583957E-002
   GDM::trust : updated trust radius is        0.108900000000000     
   GDM::search:  On step            1 .  The current bracket is:
       left   : x =  0.0000E+00, e =      -792.2372584244, g = -0.8926E-01
       current: x =  0.6258E+00, e =      -792.2040816070, g =  0.1719E+00
       right  : x =  0.1000E+04, e =      1000.0000000000, g =  0.1000E+04
       next   : x =  0.1963E+00
   GDM::      : max rotation in step is        0.109827907365215     
   ------- Leaving GDM -- hopefully with a step in the right direction! --------
 
   43    -792.2040816070      5.97E-02  Gap = 0.00 eV  Line search: overstep
 
   ------------------- Entering Geometric Direct Minimization ------------------
   GDM::trust : actual energy change is       -2.531769279551099E-002
   GDM::trust : predicted energy change was   -8.378609355583957E-002
   GDM::trust : updated trust radius is        0.108900000000000     
   GDM:         diagonal hessian shift is      0.000000000000000E+000
   GDM::PreWSS: input subspace size is                 19
   GDM::PreWSS: working subspace size set to           18
   GDM::PrEWSS: # of linearly dependent vectors =            0
   GDM::PrEWSS: Max dev from orthonormality =   2.602223991843289E-013
   GDM::BFGS:   lowest Hinv e-value    0.124994086587225     
   GDM::BFGS:   highest Hinv e-value    5.33005745439033     
   GDM::      : max scaling in EWCs is          2.82842712474619     
   GDM::      : max rotation in step is        0.182884064651891     
   GDM::        grad.step =  -2.950633686554501E-002
   ------- Leaving GDM -- hopefully with a step in the right direction! --------
 
   44    -792.2625761172      1.72E-01  Gap = 0.00 eV  Descent step
 
   ------------------- Entering Geometric Direct Minimization ------------------
   GDM::trust : actual energy change is        1.418578212872035E-002
   GDM::trust : predicted energy change was   -4.539375972821799E-002
   GDM::trust : updated trust radius is        0.108900000000000     
   GDM::search:  On step            1 .  The current bracket is:
       left   : x =  0.0000E+00, e =      -792.2625761172, g = -0.1275E+00
       current: x =  0.2314E+00, e =      -792.2483903350, g =  0.1799E+00
       right  : x =  0.1000E+04, e =      1000.0000000000, g =  0.1000E+04
       next   : x =  0.7815E-01
   GDM::      : max rotation in step is        6.175299966187355E-002
   ------- Leaving GDM -- hopefully with a step in the right direction! --------
 
   45    -792.2483903350      7.95E-02  Gap = 0.00 eV  Line search: overstep
 
   ------------------- Entering Geometric Direct Minimization ------------------
   GDM::trust : actual energy change is       -1.141005976785436E-002
   GDM::trust : predicted energy change was   -4.539375972821799E-002
   GDM::trust : updated trust radius is        0.108900000000000     
   GDM:         diagonal hessian shift is      0.000000000000000E+000
   GDM::PreWSS: input subspace size is                 19
   GDM::PreWSS: working subspace size set to           18
   GDM::PrEWSS: # of linearly dependent vectors =            0
   GDM::PrEWSS: Max dev from orthonormality =   3.913085133699923E-013
   GDM::BFGS:   lowest Hinv e-value    0.120640369214105     
   GDM::BFGS:   highest Hinv e-value    3.53713054511717     
   GDM::trust : dogleg step length is          0.108900000000000     
   GDM::      : max scaling in EWCs is          2.82842712474619     
   GDM::      : max rotation in step is       -8.990538324467744E-002
   GDM::        grad.step =  -1.038407014423732E-002
   ------- Leaving GDM -- hopefully with a step in the right direction! --------
 
   46    -792.2739861769      3.60E-02  Gap = 0.00 eV  Dog-leg BFGS step
 
   ------------------- Entering Geometric Direct Minimization ------------------
   GDM::trust : actual energy change is       -4.107914421638270E-003
   GDM::trust : predicted energy change was   -1.829241266761434E-002
   GDM::trust : updated trust radius is        0.108900000000000     
   GDM:         diagonal hessian shift is      0.000000000000000E+000
   GDM::PreWSS: input subspace size is                 19
   GDM::PreWSS: working subspace size set to           18
   GDM::PrEWSS: # of linearly dependent vectors =            0
   GDM::PrEWSS: Max dev from orthonormality =   2.675776267224705E-013
   GDM::BFGS:   lowest Hinv e-value    0.112850938152277     
   GDM::BFGS:   highest Hinv e-value    3.01423940519001     
   GDM::      : max scaling in EWCs is          2.82842712474619     
   GDM::      : max rotation in step is        0.149315871656598     
   GDM::        grad.step =  -2.041622810296270E-002
   ------- Leaving GDM -- hopefully with a step in the right direction! --------
 
   47    -792.2780940913      9.72E-02  Gap = 0.00 eV  Descent step
 
   ------------------- Entering Geometric Direct Minimization ------------------
   GDM::trust : actual energy change is        4.694872985317033E-002
   GDM::trust : predicted energy change was   -4.334889906847507E-002
   GDM::trust : updated trust radius is        0.108900000000000     
   GDM::search:  On step            1 .  The current bracket is:
       left   : x =  0.0000E+00, e =      -792.2780940913, g = -0.8635E-01
       current: x =  0.2364E+00, e =      -792.2311453615, g =  0.2956E+00
       right  : x =  0.1000E+04, e =      1000.0000000000, g =  0.1000E+04
       next   : x =  0.3583E-01
   GDM::      : max rotation in step is        2.262650336038893E-002
   ------- Leaving GDM -- hopefully with a step in the right direction! --------
 
   48    -792.2311453615      8.03E-02  Gap = 0.00 eV  Line search: overstep
 
   ------------------- Entering Geometric Direct Minimization ------------------
   GDM::trust : actual energy change is       -4.331616373633551E-003
   GDM::trust : predicted energy change was   -4.334889906847507E-002
   GDM::trust : updated trust radius is        0.108900000000000     
   GDM:         diagonal hessian shift is      0.000000000000000E+000
   GDM::PreWSS: input subspace size is                 19
   GDM::PreWSS: working subspace size set to           18
   GDM::PrEWSS: # of linearly dependent vectors =            0
   GDM::PrEWSS: Max dev from orthonormality =   2.860125331016761E-013
   GDM::BFGS:   lowest Hinv e-value    0.118264463065638     
   GDM::BFGS:   highest Hinv e-value    2.69916428325149     
   GDM::      : max scaling in EWCs is          2.82842712474619     
   GDM::      : max rotation in step is        6.349022660529897E-002
   GDM::        grad.step =  -2.786271188685007E-003
   ------- Leaving GDM -- hopefully with a step in the right direction! --------
 
   49    -792.2824257077      3.67E-02  Gap = 0.00 eV  Normal BFGS step
 
   ------------------- Entering Geometric Direct Minimization ------------------
   GDM::trust : actual energy change is       -2.390809561802598E-003
   GDM::trust : predicted energy change was   -4.179406783027510E-003
   GDM::trust : updated trust radius is        0.330000000000000     
   GDM:         diagonal hessian shift is      0.000000000000000E+000
   GDM::PreWSS: input subspace size is                 19
   GDM::PreWSS: working subspace size set to           18
   GDM::PrEWSS: # of linearly dependent vectors =            0
   GDM::PrEWSS: Max dev from orthonormality =   7.391448564320058E-013
   GDM::BFGS:   lowest Hinv e-value    0.125041784121013     
   GDM::BFGS:   highest Hinv e-value    2.61501915588480     
   GDM::      : max scaling in EWCs is          2.82842712474619     
   GDM::      : max rotation in step is        2.376740351742951E-002
   GDM::        grad.step =  -6.886219451180005E-004
   ------- Leaving GDM -- hopefully with a step in the right direction! --------
 
   50    -792.2848165173      1.36E-02  Gap = 0.00 eV  Normal BFGS step
 
   ------------------- Entering Geometric Direct Minimization ------------------
   GDM::trust : actual energy change is       -5.004322563308961E-004
   GDM::trust : predicted energy change was   -1.032932917677001E-003
   GDM::trust : updated trust radius is        0.330000000000000     
   GDM:         diagonal hessian shift is      0.000000000000000E+000
   GDM::PreWSS: input subspace size is                 19
   GDM::PreWSS: working subspace size set to           18
   GDM::PrEWSS: # of linearly dependent vectors =            0
   GDM::PrEWSS: Max dev from orthonormality =   4.622704996570803E-012
   GDM::BFGS:   lowest Hinv e-value    0.122551105212854     
   GDM::BFGS:   highest Hinv e-value    2.61857755932615     
   GDM::      : max scaling in EWCs is          2.82842712474619     
   GDM::      : max rotation in step is        2.490732288656207E-002
   GDM::        grad.step =  -3.933229010258310E-004
   ------- Leaving GDM -- hopefully with a step in the right direction! --------
 
   51    -792.2853169495      1.30E-02  Gap = 0.00 eV  Normal BFGS step
 
   ------------------- Entering Geometric Direct Minimization ------------------
   GDM::trust : actual energy change is        1.686835440750656E-004
   GDM::trust : predicted energy change was   -5.899843515387465E-004
   GDM::trust : updated trust radius is        0.108900000000000     
   GDM::search:  On step            1 .  The current bracket is:
       left   : x =  0.0000E+00, e =      -792.2853169495, g = -0.1154E-01
       current: x =  0.3409E-01, e =      -792.2851482660, g =  0.1671E-01
       right  : x =  0.1000E+04, e =      1000.0000000000, g =  0.1000E+04
       next   : x =  0.1193E-01
   GDM::      : max rotation in step is        8.715754578909577E-003
   ------- Leaving GDM -- hopefully with a step in the right direction! --------
 
   52    -792.2851482660      2.51E-03  Gap = 0.00 eV  Line search: overstep
 
   ------------------- Entering Geometric Direct Minimization ------------------
   GDM::trust : actual energy change is       -1.595411777088884E-004
   GDM::trust : predicted energy change was   -5.899843515387465E-004
   GDM::trust : updated trust radius is        0.108900000000000     
   GDM:         diagonal hessian shift is      0.000000000000000E+000
   GDM::PreWSS: input subspace size is                 19
   GDM::PreWSS: working subspace size set to           18
   GDM::PrEWSS: # of linearly dependent vectors =            0
   GDM::PrEWSS: Max dev from orthonormality =   3.773967249820487E-012
   GDM::BFGS:   lowest Hinv e-value    0.128084387511244     
   GDM::BFGS:   highest Hinv e-value    2.57542008390503     
   GDM::      : max scaling in EWCs is          2.82842712474619     
   GDM::      : max rotation in step is        2.585224848873247E-002
   GDM::        grad.step =  -1.762064257068922E-004
   ------- Leaving GDM -- hopefully with a step in the right direction! --------
 
   53    -792.2854764907      7.10E-03  Gap = 87.71 eV  Normal BFGS step
 
   ------------------- Entering Geometric Direct Minimization ------------------
   GDM::trust : actual energy change is       -1.585231271974408E-004
   GDM::trust : predicted energy change was   -2.643096385603381E-004
   GDM::trust : updated trust radius is        0.330000000000000     
   GDM:         diagonal hessian shift is      0.000000000000000E+000
   GDM::PreWSS: input subspace size is                 19
   GDM::PreWSS: working subspace size set to           18
   GDM::PrEWSS: # of linearly dependent vectors =            0
   GDM::PrEWSS: Max dev from orthonormality =   7.575266802728464E-012
   GDM::BFGS:   lowest Hinv e-value    0.120546203694865     
   GDM::BFGS:   highest Hinv e-value    3.04302235492483     
   GDM::      : max scaling in EWCs is          2.82842712474619     
   GDM::      : max rotation in step is        1.829236802148197E-002
   GDM::        grad.step =  -5.626378421773039E-005
   ------- Leaving GDM -- hopefully with a step in the right direction! --------
 
   54    -792.2856350138      5.59E-03  Gap = 0.00 eV  Normal BFGS step
 
   ------------------- Entering Geometric Direct Minimization ------------------
   GDM::trust : actual energy change is       -3.815952982222370E-005
   GDM::trust : predicted energy change was   -8.439567632659557E-005
   GDM::trust : updated trust radius is        0.330000000000000     
   GDM:         diagonal hessian shift is      0.000000000000000E+000
   GDM::PreWSS: input subspace size is                 19
   GDM::PreWSS: working subspace size set to           18
   GDM::PrEWSS: # of linearly dependent vectors =            0
   GDM::PrEWSS: Max dev from orthonormality =   3.960498595745321E-012
   GDM::BFGS:   lowest Hinv e-value    0.125151108184836     
   GDM::BFGS:   highest Hinv e-value    5.89582878017906     
   GDM::      : max scaling in EWCs is          2.82842712474619     
   GDM::      : max rotation in step is        4.606113746406527E-002
   GDM::        grad.step =  -1.350965118311907E-004
   ------- Leaving GDM -- hopefully with a step in the right direction! --------
 
   55    -792.2856731734      8.46E-03  Gap = 0.00 eV  Normal BFGS step
 
   ------------------- Entering Geometric Direct Minimization ------------------
   GDM::trust : actual energy change is       -6.480077558990160E-006
   GDM::trust : predicted energy change was   -2.026447677467860E-004
   GDM::trust : updated trust radius is        0.330000000000000     
   GDM:         diagonal hessian shift is      0.000000000000000E+000
   GDM::PreWSS: input subspace size is                 19
   GDM::PreWSS: working subspace size set to           18
   GDM::PrEWSS: # of linearly dependent vectors =            0
   GDM::PrEWSS: Max dev from orthonormality =   3.779991944452554E-012
   GDM::BFGS:   lowest Hinv e-value    0.123718418074975     
   GDM::BFGS:   highest Hinv e-value    5.63382621943278     
   GDM::      : max scaling in EWCs is          2.82842712474619     
   GDM::      : max rotation in step is        8.948239662180614E-003
   GDM::        grad.step =  -1.245540258207303E-004
   ------- Leaving GDM -- hopefully with a step in the right direction! --------
 
   56    -792.2856796535      8.68E-03  Gap = 0.00 eV  Normal BFGS step
 
   ------------------- Entering Geometric Direct Minimization ------------------
   GDM::trust : actual energy change is       -1.472971634939313E-004
   GDM::trust : predicted energy change was   -1.868310387310955E-004
   GDM::trust : updated trust radius is        0.330000000000000     
   GDM:         diagonal hessian shift is      0.000000000000000E+000
   GDM::PreWSS: input subspace size is                 19
   GDM::PreWSS: working subspace size set to           18
   GDM::PrEWSS: # of linearly dependent vectors =            0
   GDM::PrEWSS: Max dev from orthonormality =   5.602802943815988E-012
   GDM::BFGS:   lowest Hinv e-value    0.123446447260320     
   GDM::BFGS:   highest Hinv e-value    5.93164193182354     
   GDM::      : max scaling in EWCs is          2.82842712474619     
   GDM::      : max rotation in step is        2.630771401501765E-002
   GDM::        grad.step =  -6.023010294378367E-005
   ------- Leaving GDM -- hopefully with a step in the right direction! --------
 
   57    -792.2858269506      3.04E-03  Gap = 0.00 eV  Normal BFGS step
 
   ------------------- Entering Geometric Direct Minimization ------------------
   GDM::trust : actual energy change is       -1.006739017839209E-004
   GDM::trust : predicted energy change was   -9.034515441567556E-005
   GDM::trust : updated trust radius is        0.330000000000000     
   GDM:         diagonal hessian shift is      0.000000000000000E+000
   GDM::PreWSS: input subspace size is                 19
   GDM::PreWSS: working subspace size set to           18
   GDM::PrEWSS: # of linearly dependent vectors =            0
   GDM::PrEWSS: Max dev from orthonormality =   6.316664205585631E-012
   GDM::BFGS:   lowest Hinv e-value    0.101863928926068     
   GDM::BFGS:   highest Hinv e-value    32.6378808473326     
   GDM::      : max scaling in EWCs is          2.82842712474619     
   GDM::      : max rotation in step is        0.263896299240968     
   GDM::        grad.step =  -5.364648991373847E-004
   ------- Leaving GDM -- hopefully with a step in the right direction! --------
 
   58    -792.2859276245      6.20E-03  Gap = 0.00 eV  Normal BFGS step
 
   ------------------- Entering Geometric Direct Minimization ------------------
   GDM::trust : actual energy change is        6.832284655729381E-003
   GDM::trust : predicted energy change was   -8.046973487060774E-004
   GDM::trust : updated trust radius is        0.108900000000000     
   GDM::search:  On step            1 .  The current bracket is:
       left   : x =  0.0000E+00, e =      -792.2859276245, g = -0.1550E-02
       current: x =  0.3460E+00, e =      -792.2790953399, g =  0.3727E-01
       right  : x =  0.1000E+04, e =      1000.0000000000, g =  0.1000E+04
       next   : x =  0.3460E-01
   GDM::      : max rotation in step is        2.638962992409676E-002
   ------- Leaving GDM -- hopefully with a step in the right direction! --------
 
   59    -792.2790953399      1.95E-02  Gap = 0.00 eV  Line search: overstep
 
   ------------------- Entering Geometric Direct Minimization ------------------
   GDM::trust : actual energy change is       -1.041433378077272E-004
   GDM::trust : predicted energy change was   -8.046973487060774E-004
   GDM::trust : updated trust radius is        0.108900000000000     
   GDM:         diagonal hessian shift is      0.000000000000000E+000
   GDM::PreWSS: input subspace size is                 19
   GDM::PreWSS: working subspace size set to           18
   GDM::PrEWSS: # of linearly dependent vectors =            0
   GDM::PrEWSS: Max dev from orthonormality =   1.069225263883311E-011
   GDM::BFGS:   lowest Hinv e-value    4.546361432433435E-002
   GDM::BFGS:   highest Hinv e-value    124.990991743864     
   GDM::trust : dogleg step length is          0.108900000000000     
   GDM::      : max scaling in EWCs is          2.82842712474619     
   GDM::      : max rotation in step is        0.207492642886266     
   GDM::        grad.step =  -7.011646450446296E-004
   ------- Leaving GDM -- hopefully with a step in the right direction! --------
 
   60    -792.2860317679      1.00E-02  Gap = 0.00 eV  Dog-leg BFGS step
 
   ------------------- Entering Geometric Direct Minimization ------------------
   GDM::trust : actual energy change is        1.748363805518238E-003
   GDM::trust : predicted energy change was   -2.570415349400466E-003
   GDM::trust : updated trust radius is        3.593700000000000E-002
   GDM::search:  On step            1 .  The current bracket is:
       left   : x =  0.0000E+00, e =      -792.2860317679, g = -0.2367E-02
       current: x =  0.2962E+00, e =      -792.2842834041, g =  0.1852E-01
       right  : x =  0.1000E+04, e =      1000.0000000000, g =  0.1000E+04
       next   : x =  0.4240E-01
   GDM::      : max rotation in step is        2.969683925599844E-002
   ------- Leaving GDM -- hopefully with a step in the right direction! --------
 
   61    -792.2842834041      1.45E-02  Gap = 0.00 eV  Line search: overstep
 
   ------------------- Entering Geometric Direct Minimization ------------------
   GDM::trust : actual energy change is       -2.175901704504213E-004
   GDM::trust : predicted energy change was   -2.570415349400466E-003
   GDM::trust : updated trust radius is        3.593700000000000E-002
   GDM::search:  On step            2 .  The current bracket is:
       left   : x =  0.0000E+00, e =      -792.2860317679, g = -0.2367E-02
       current: x =  0.4240E-01, e =      -792.2862493580, g = -0.2669E-02
       right  : x =  0.2962E+00, e =         0.0000000000, g =  0.0000E+00
       next   : x =  0.2708E+00
   GDM::      : max rotation in step is        0.189713062523239     
   ------- Leaving GDM -- hopefully with a step in the right direction! --------
 
   62    -792.2862493580      1.51E-03  Gap = 0.00 eV  Line search: understep
 
   ------------------- Entering Geometric Direct Minimization ------------------
   GDM::trust : actual energy change is        9.240981489710975E-004
   GDM::trust : predicted energy change was   -2.570415349400466E-003
   GDM::trust : updated trust radius is        1.185921000000000E-002
   GDM::search:  On step            3 .  The current bracket is:
       left   : x =  0.4240E-01, e =      -792.2862493580, g = -0.2669E-02
       current: x =  0.2708E+00, e =      -792.2851076697, g =  0.1405E-01
       right  : x =  0.2962E+00, e =         0.0000000000, g =  0.0000E+00
       next   : x =  0.6524E-01
   GDM::      : max rotation in step is        4.569846158272252E-002
   ------- Leaving GDM -- hopefully with a step in the right direction! --------
 
   63    -792.2851076697      1.26E-02  Gap = 0.00 eV  Line search: overstep
 
   ------------------- Entering Geometric Direct Minimization ------------------
   GDM::trust : actual energy change is       -3.376563932988574E-004
   GDM::trust : predicted energy change was   -2.570415349400466E-003
   GDM::trust : updated trust radius is        1.185921000000000E-002
   GDM::search:  On step            4 .  The current bracket is:
       left   : x =  0.4240E-01, e =      -792.2862493580, g = -0.2669E-02
       current: x =  0.6524E-01, e =      -792.2863694242, g = -0.2548E-02
       right  : x =  0.2708E+00, e =         0.0000000000, g =  0.0000E+00
       next   : x =  0.2503E+00
   GDM::      : max rotation in step is        0.175311602429188     
   ------- Leaving GDM -- hopefully with a step in the right direction! --------
 
   64    -792.2863694242      2.00E-03  Gap = 0.00 eV  Line search: understep
 
   ------------------- Entering Geometric Direct Minimization ------------------
   GDM::trust : actual energy change is        4.132999894181921E-004
   GDM::trust : predicted energy change was   -2.570415349400466E-003
   GDM::trust : updated trust radius is        3.913539300000001E-003
   GDM::search:  On step            5 .  The current bracket is:
       left   : x =  0.6524E-01, e =      -792.2863694242, g = -0.2548E-02
       current: x =  0.2503E+00, e =      -792.2856184679, g =  0.1085E-01
       right  : x =  0.2708E+00, e =         0.0000000000, g =  0.0000E+00
       next   : x =  0.8374E-01
   GDM::      : max rotation in step is        5.865977566736903E-002
   ------- Leaving GDM -- hopefully with a step in the right direction! --------
 
   65    -792.2856184679      1.11E-02  Gap = 0.00 eV  Line search: overstep
 
   ------------------- Entering Geometric Direct Minimization ------------------
   GDM::trust : actual energy change is       -4.272692998483762E-004
   GDM::trust : predicted energy change was   -2.570415349400466E-003
   GDM::trust : updated trust radius is        3.913539300000001E-003
   GDM::search:  On step            6 .  The current bracket is:
       left   : x =  0.6524E-01, e =      -792.2863694242, g = -0.2548E-02
       current: x =  0.8374E-01, e =      -792.2864590372, g = -0.2265E-02
       right  : x =  0.2503E+00, e =         0.0000000000, g =  0.0000E+00
       next   : x =  0.2336E+00
   GDM::      : max rotation in step is        0.163646419753006     
   ------- Leaving GDM -- hopefully with a step in the right direction! --------
 
   66    -792.2864590372      2.50E-03  Gap = 0.00 eV  Line search: understep
 
   ------------------- Entering Geometric Direct Minimization ------------------
   GDM::trust : actual energy change is        9.104851130814495E-005
   GDM::trust : predicted energy change was   -2.570415349400466E-003
   GDM::trust : updated trust radius is        1.291467969000000E-003
   GDM::search:  On step            7 .  The current bracket is:
       left   : x =  0.8374E-01, e =      -792.2864590372, g = -0.2265E-02
       current: x =  0.2336E+00, e =      -792.2859407193, g =  0.8537E-02
       right  : x =  0.2503E+00, e =         0.0000000000, g =  0.0000E+00
       next   : x =  0.9873E-01
   GDM::      : max rotation in step is        6.915844007593269E-002
   ------- Leaving GDM -- hopefully with a step in the right direction! --------
 
   67    -792.2859407193      9.93E-03  Gap = 0.00 eV  Line search: overstep
 
   ------------------- Entering Geometric Direct Minimization ------------------
   GDM::trust : actual energy change is       -4.899847461956597E-004
   GDM::trust : predicted energy change was   -2.570415349400466E-003
   GDM::trust : updated trust radius is        1.291467969000000E-003
   GDM:         diagonal hessian shift is      0.000000000000000E+000
   GDM::PreWSS: input subspace size is                 19
   GDM::PreWSS: working subspace size set to           18
   GDM::PrEWSS: # of linearly dependent vectors =            0
   GDM::PrEWSS: Max dev from orthonormality =   1.223505324832175E-011
   GDM::BFGS:   lowest Hinv e-value    6.739188312067317E-002
   GDM::BFGS:   highest Hinv e-value    428.521885304230     
   GDM::      : max scaling in EWCs is          2.82842712474619     
   GDM::      : max rotation in step is       -2.105036524818404E-003
   GDM::        grad.step =  -4.686704511998744E-005
   ------- Leaving GDM -- hopefully with a step in the right direction! --------
 
   68    -792.2865217526      2.09E-02  Gap = 0.00 eV  Descent step
 
   ------------------- Entering Geometric Direct Minimization ------------------
[...]
   GDM::PreWSS: working subspace size set to           10
   GDM::PrEWSS: # of linearly dependent vectors =            9
   GDM::PrEWSS: Max dev from orthonormality =   3.459454944731988E-013
   GDM::BFGS:   lowest Hinv e-value    0.248052971452095     
   GDM::BFGS:   highest Hinv e-value    1.43705747391946     
   GDM::      : max scaling in EWCs is          1.82269501204457     
   GDM::      : max rotation in step is        1.401570876833431E-006
   GDM::        grad.step =  -1.152594740148027E-010
   ------- Leaving GDM -- hopefully with a step in the right direction! --------
 
   12    -792.4913099826      3.54E-06  Gap = -0.00 eV  Normal BFGS step
 
   ------------------- Entering Geometric Direct Minimization ------------------
   GDM::trust : actual energy change is       -7.275957614183426E-011
   GDM::trust : predicted energy change was   -1.728892110222040E-010
   GDM::trust : updated trust radius is        0.330000000000000     
   GDM:         diagonal hessian shift is      0.000000000000000E+000
   GDM::PreWSS: input subspace size is                 11
   GDM::PreWSS: working subspace size set to           11
   GDM::PrEWSS: # of linearly dependent vectors =           10
   GDM::PrEWSS: Max dev from orthonormality =   4.367946976335801E-013
   GDM::BFGS:   lowest Hinv e-value    0.233089631749659     
   GDM::BFGS:   highest Hinv e-value    1.42931243869078     
   GDM::      : max scaling in EWCs is          1.82270259244821     
   GDM::      : max rotation in step is       -5.067593041748304E-007
   GDM::        grad.step =  -1.719779790875922E-011
   ------- Leaving GDM -- hopefully with a step in the right direction! --------
 
   13    -792.4913099827      8.58E-07  Gap = -0.00 eV  Normal BFGS step
 
   ------------------- Entering Geometric Direct Minimization ------------------
   GDM::trust : actual energy change is       -1.114131009671837E-011
   GDM::trust : predicted energy change was   -2.579669686313883E-011
   GDM::trust : updated trust radius is        0.330000000000000     
   GDM:         diagonal hessian shift is      0.000000000000000E+000
   GDM::PreWSS: input subspace size is                 12
   GDM::PreWSS: working subspace size set to           12
   GDM::PrEWSS: # of linearly dependent vectors =           11
   GDM::PrEWSS: Max dev from orthonormality =   2.393921866294946E-012
   GDM::BFGS:   lowest Hinv e-value    0.238083811914476     
   GDM::BFGS:   highest Hinv e-value    1.50685320641904     
   GDM::      : max scaling in EWCs is          1.82270030755406     
   GDM::      : max rotation in step is        7.266874157553749E-007
   GDM::        grad.step =  -1.169165883089093E-011
   ------- Leaving GDM -- hopefully with a step in the right direction! --------
 
   14    -792.4913099827      1.20E-06  Gap = -0.00 eV  Normal BFGS step
 
   ------------------- Entering Geometric Direct Minimization ------------------
   GDM::trust : actual energy change is        7.844391802791506E-012
   GDM::trust : predicted energy change was   -1.753748824633640E-011
   GDM::trust : updated trust radius is        0.108900000000000     
   GDM::WARNING energy changes are now smaller than effective accuracy.
   GDM::        calculation will continue, but THRESH should be increased
   GDM::        or SCF_CONVERGENCE decreased.
   GDM::        effective_thresh =   3.600000000000000E-010
   GDM:         diagonal hessian shift is      0.000000000000000E+000
   GDM::PreWSS: input subspace size is                 13
   GDM::PreWSS: working subspace size set to           13
   GDM::PrEWSS: # of linearly dependent vectors =           12
   GDM::PrEWSS: Max dev from orthonormality =   2.485680064556739E-012
   GDM::BFGS:   lowest Hinv e-value    0.227961448085547     
   GDM::BFGS:   highest Hinv e-value    1.42338860681653     
   GDM::      : max scaling in EWCs is          1.82269858204824     
   GDM::      : max rotation in step is       -3.651255312449340E-007
   GDM::        grad.step =  -1.257368516636452E-011
   ------- Leaving GDM -- hopefully with a step in the right direction! --------
 
   15    -792.4913099827      1.30E-06  Gap = -0.00 eV  Normal BFGS step
 
   ------------------- Entering Geometric Direct Minimization ------------------
   GDM::trust : actual energy change is       -1.148237060988322E-011
   GDM::trust : predicted energy change was   -1.886052774954677E-011
   GDM::trust : updated trust radius is        0.330000000000000     
   GDM:         diagonal hessian shift is      0.000000000000000E+000
   GDM::PreWSS: input subspace size is                 14
   GDM::PreWSS: working subspace size set to           14
   GDM::PrEWSS: # of linearly dependent vectors =           13
   GDM::PrEWSS: Max dev from orthonormality =   4.046264278495526E-011
   GDM::BFGS:   lowest Hinv e-value    0.238885966206360     
   GDM::BFGS:   highest Hinv e-value    1.40887603721468     
   GDM::      : max scaling in EWCs is          1.82270042393208     
   GDM::      : max rotation in step is       -1.039740185089753E-007
   GDM::        grad.step =  -3.836456217529366E-013
   ------- Leaving GDM -- hopefully with a step in the right direction! --------
 
   16    -792.4913099827      1.34E-07  Gap = -0.00 eV  Normal BFGS step
 
   ------------------- Entering Geometric Direct Minimization ------------------
   GDM::trust : actual energy change is       -1.364242052659392E-012
   GDM::trust : predicted energy change was   -5.754684326294050E-013
   GDM::trust : updated trust radius is        0.330000000000000     
   GDM:         diagonal hessian shift is      0.000000000000000E+000
   GDM::PreWSS: input subspace size is                 15
   GDM::PreWSS: working subspace size set to           15
   GDM::PrEWSS: # of linearly dependent vectors =           14
   GDM::PrEWSS: Max dev from orthonormality =   5.065510164103948E-011
   GDM::BFGS:   lowest Hinv e-value    0.233181037202237     
   GDM::BFGS:   highest Hinv e-value    1.42066873195259     
   GDM::      : max scaling in EWCs is          1.82270013213028     
   GDM::      : max rotation in step is        4.309241382757421E-008
   GDM::        grad.step =  -7.327555355563187E-014
   ------- Leaving GDM -- hopefully with a step in the right direction! --------
 
   17    -792.4913099827      7.76E-08  Gap = -0.00 eV  Normal BFGS step
 
   ------------------- Entering Geometric Direct Minimization ------------------
   GDM::trust : actual energy change is        1.136868377216160E-013
   GDM::trust : predicted energy change was   -1.099133303334478E-013
   GDM::trust : updated trust radius is        0.108900000000000     
   GDM::WARNING energy changes are now smaller than effective accuracy.
   GDM::        calculation will continue, but THRESH should be increased
   GDM::        or SCF_CONVERGENCE decreased.
   GDM::        effective_thresh =   3.600000000000000E-010
   GDM:         diagonal hessian shift is      0.000000000000000E+000
   GDM::PreWSS: input subspace size is                 16
   GDM::PreWSS: working subspace size set to           16
   GDM::PrEWSS: # of linearly dependent vectors =           15
   GDM::PrEWSS: Max dev from orthonormality =   1.190186664501436E-010
   GDM::BFGS:   lowest Hinv e-value    0.234410922151493     
   GDM::BFGS:   highest Hinv e-value    1.42554394028621     
   GDM::      : max scaling in EWCs is          1.82270020423383     
   GDM::      : max rotation in step is        8.641009657518013E-009
   GDM::        grad.step =  -2.894077980124898E-015
   ------- Leaving GDM -- hopefully with a step in the right direction! --------
 
   18    -792.4913099827      1.06E-08  Gap = -0.00 eV  Normal BFGS step
 
   ------------------- Entering Geometric Direct Minimization ------------------
   GDM::trust : actual energy change is       -2.273736754432321E-013
   GDM::trust : predicted energy change was   -4.341116970187348E-015
   GDM::trust : updated trust radius is        0.330000000000000     
   GDM:         diagonal hessian shift is      0.000000000000000E+000
   GDM::PreWSS: input subspace size is                 17
   GDM::PreWSS: working subspace size set to           17
   GDM::PrEWSS: # of linearly dependent vectors =           16
   GDM::PrEWSS: Max dev from orthonormality =   1.294745862606694E-009
   GDM::BFGS:   lowest Hinv e-value    0.233874351857673     
   GDM::BFGS:   highest Hinv e-value    1.38781959749997     
   GDM::      : max scaling in EWCs is          1.82270020121359     
   GDM::      : max rotation in step is       -2.770314803737566E-009
   GDM::        grad.step =  -4.756670631012034E-016
   ------- Leaving GDM -- hopefully with a step in the right direction! --------
 
   19    -792.4913099827      5.14E-09 Convergence criterion met
 ---------------------------------------
 One-Electron    Energy = -1969.4017560267
 Total Coulomb   Energy =   823.3135028628
 Alpha Exchange  Energy =    -6.8521679997
 Beta  Exchange  Energy =    -6.8521679997
 DFT   Exchange  Energy =   -54.7945331834
 DFT Correlation Energy =    -3.3138824321
 Nuclear Repu.   Energy =   425.4096947961
 Nuclear Attr.   Energy = -2712.8888942655
 Kinetic         Energy =   743.4871382387
 SCF time:  CPU 117.74 s  wall 12.72 s
 SCF   energy in the final basis set = -792.4913099827
 Total energy in the final basis set = -792.4913099827
 
 --------------------------------------------------------------
 
                    Orbital Energies (a.u.)
 --------------------------------------------------------------
 
 Alpha MOs
 -- Occupied --
-88.916 -19.225 -19.158 -19.127 -19.127  -7.986  -5.954  -5.943
 -5.941  -2.076  -2.074  -1.306  -1.289  -1.285  -1.283  -1.276
 -1.272  -1.014  -0.910  -0.850  -0.849  -0.693  -0.445  -0.444
 -0.437  -0.387  -0.375  -0.365  -0.330  -0.325  -0.321  -0.318
 -0.314  -0.289  -0.283  -0.272
 -- Virtual --
 -0.121  -0.113  -0.096  -0.082  -0.076  -0.066  -0.036  -0.018
 -0.013  -0.002   0.001   0.012   0.027   0.028   0.035   0.039
  0.040   0.051   0.068   0.073   0.087   0.090   0.094   0.116
  0.141   0.160   0.175   0.187   0.190   0.195   0.202   0.212
  0.217   0.225   0.237   0.239   0.253   0.258   0.262   0.269
  0.284   0.285   0.287   0.300   0.319   0.329   0.335   0.363
  0.386   0.396   0.407   0.469   0.512   0.536   0.567   0.579
  0.619   0.741   0.806   0.815   0.873   0.905   0.935   0.987
  1.159   1.166   1.202   1.204   1.211   1.232   1.246   1.257
  1.261   1.286   1.300   1.308   1.653   1.662   1.714   1.738
  1.758   1.767   1.782   1.786   1.798   1.817   1.825   1.834
  1.850   1.851   1.855   1.861   1.883   1.893   1.906   1.933
  1.987   2.138   2.211   2.253  15.466  16.659
 --------------------------------------------------------------
 
          Ground-State Mulliken Net Atomic Charges

     Atom                 Charge (a.u.)
  ----------------------------------------
      1 Zr                    1.476136
      2 Zr                    1.476145
      3 S                    -0.013317
      4 O                    -0.996819
      5 O                    -0.812681
      6 O                    -0.564730
      7 O                    -0.564735
  ----------------------------------------
  Sum of atomic charges =     0.000000

 -----------------------------------------------------------------
                    Cartesian Multipole Moments
 -----------------------------------------------------------------
    Charge (ESU x 10^10)
                 0.0000
    Dipole Moment (Debye)
         X       0.0000      Y      -7.2980      Z       3.3874
       Tot       8.0459
    Quadrupole Moments (Debye-Ang)
        XX     -84.9635     XY      -0.0001     YY     -82.8418
        XZ      -0.0004     YZ      -6.3222     ZZ     -79.7042
    Octopole Moments (Debye-Ang^2)
       XXX      -0.0033    XXY     -44.5757    XYY      -0.0011
       YYY      58.7149    XXZ      19.2800    XYZ      -0.0001
       YYZ       4.1762    XZZ      -0.0007    YZZ      19.2028
       ZZZ      -2.7527
    Hexadecapole Moments (Debye-Ang^3)
      XXXX   -1440.2061   XXXY      -0.0073   XXYY    -326.9720
      XYYY      -0.0046   YYYY    -537.2094   XXXZ      -0.0029
      XXYZ     -41.4784   XYYZ      -0.0010   YYYZ    -100.2121
      XXZZ    -226.7266   XYZZ      -0.0013   YYZZ    -151.6300
      XZZZ      -0.0025   YZZZ    -104.9562   ZZZZ    -334.5100
 -----------------------------------------------------------------
 Calculating analytic gradient of the SCF energy
 Gradient of SCF Energy
            1           2           3           4           5           6
    1  -0.0001777   0.0001788  -0.0000006   0.0000011  -0.0000033  -0.0000617
    2   0.0000137   0.0000113  -0.0000326  -0.0000762   0.0000308   0.0000263
    3  -0.0000084  -0.0000148  -0.0000008  -0.0000948   0.0001244  -0.0000026
            7
    1   0.0000634
    2   0.0000267
    3  -0.0000030
 Max gradient component =       1.788E-04
 RMS gradient           =       7.096E-05
 Gradient time:  CPU 24.42 s  wall 3.09 s
 Geometry Optimization Parameters
   NAtoms,    NIC,     NZ,  NCons,   NDum,   NFix, NCnnct, MaxDiis
        7      77       0       0       0       0       0       0

 Cartesian Hessian Update
 Hessian Updated using BFGS Update


** GEOMETRY OPTIMIZATION IN CARTESIAN COORDINATES **
   Searching for a Minimum

   Optimization Cycle:  51

                       Coordinates (Angstroms)
     ATOM                X               Y               Z
      1  Zr        1.5451234133   -0.1803510314    0.3295718614
      2  Zr       -1.5451047413   -0.1803733359    0.3295790668
      3  S        -0.0000033645   -2.0637569139   -0.9528313231
      4  O         0.0000221452    0.3754435856    1.4814380129
      5  O        -0.0000199994   -0.2916591776   -1.1551679422
      6  O        -2.7871834283    1.0452193431   -0.0162888953
      7  O         2.7872159751    1.0452375301   -0.0162707804
   Point Group: c1    Number of degrees of freedom:    15


   Energy is   -792.491309983


 Translations and Rotations Projected Out of Hessian

 15 Hessian modes will be used to form the next step
  Hessian Eigenvalues:
     0.004181    0.016130    0.045514    0.103412    0.125722    0.314845
     0.438710    0.559409    0.999690    0.999998    1.000000    1.000000
     1.000000    1.000000    1.072905

 Minimum Search - Taking Simple RFO Step
 Searching for Lamda that Minimizes Along All modes
 Value Taken    Lamda =   0.00000000
 Step Taken.  Stepsize is  0.004328

                             Maximum     Tolerance    Cnvgd?
         Gradient           0.000179      0.000300     YES
         Displacement       0.002323      0.001200      NO
         Energy change     -0.000001      0.000001     YES


                       Distance Matrix (Angstroms)
             Zr(  1)   Zr(  2)   S (  3)   O (  4)   O (  5)   O (  6)
   Zr(  2)  3.090228
   S (  3)  2.753033  2.753007
   O (  4)  2.005752  2.005774  3.446065
   O (  5)  2.145766  2.145727  1.783612  2.719691
   O (  6)  4.515587  1.778893  4.279161  3.234239  3.294324
   O (  7)  1.778895  4.515610  4.279204  3.234224  3.294399  5.574399

 
 Final energy is   -792.491309982672     


 ******************************
 **  OPTIMIZATION CONVERGED  **
 ******************************

                       Coordinates (Angstroms)
     ATOM                X               Y               Z
      1  Zr        1.5451234133   -0.1803510314    0.3295718614
      2  Zr       -1.5451047413   -0.1803733359    0.3295790668
      3  S        -0.0000033645   -2.0637569139   -0.9528313231
      4  O         0.0000221452    0.3754435856    1.4814380129
      5  O        -0.0000199994   -0.2916591776   -1.1551679422
      6  O        -2.7871834283    1.0452193431   -0.0162888953
      7  O         2.7872159751    1.0452375301   -0.0162707804

Z-matrix Print:
$molecule
0 1
Zr
O  1 1.778893
O  1 2.005774 2 117.297598
Zr 3 2.005752 1 100.768383 2 127.499917 0
O  4 1.778895 3 117.297753 1 -127.501882 0
O  1 2.145727 2 113.826927 3 92.983345 0
S  6 1.783612 1 88.455062 2 141.683995 0
$end

 
 --------------------------------------------------------------
 
                    Orbital Energies (a.u.)
 --------------------------------------------------------------
 
 Alpha MOs
 -- Occupied --
-88.916 -19.225 -19.158 -19.127 -19.127  -7.986  -5.954  -5.943
 -5.941  -2.076  -2.074  -1.306  -1.289  -1.285  -1.283  -1.276
 -1.272  -1.014  -0.910  -0.850  -0.849  -0.693  -0.445  -0.444
 -0.437  -0.387  -0.375  -0.365  -0.330  -0.325  -0.321  -0.318
 -0.314  -0.289  -0.283  -0.272
 -- Virtual --
 -0.121  -0.113  -0.096  -0.082  -0.076  -0.066  -0.036  -0.018
 -0.013  -0.002   0.001   0.012   0.027   0.028   0.035   0.039
  0.040   0.051   0.068   0.073   0.087   0.090   0.094   0.116
  0.141   0.160   0.175   0.187   0.190   0.195   0.202   0.212
  0.217   0.225   0.237   0.239   0.253   0.258   0.262   0.269
  0.284   0.285   0.287   0.300   0.319   0.329   0.335   0.363
  0.386   0.396   0.407   0.469   0.512   0.536   0.567   0.579
  0.619   0.741   0.806   0.815   0.873   0.905   0.935   0.987
  1.159   1.166   1.202   1.204   1.211   1.232   1.246   1.257
  1.261   1.286   1.300   1.308   1.653   1.662   1.714   1.738
  1.758   1.767   1.782   1.786   1.798   1.817   1.825   1.834
  1.850   1.851   1.855   1.861   1.883   1.893   1.906   1.933
  1.987   2.138   2.211   2.253  15.466  16.659
 --------------------------------------------------------------
 
          Ground-State Mulliken Net Atomic Charges

     Atom                 Charge (a.u.)
  ----------------------------------------
      1 Zr                    1.476136
      2 Zr                    1.476145
      3 S                    -0.013317
      4 O                    -0.996819
      5 O                    -0.812681
      6 O                    -0.564730
      7 O                    -0.564735
  ----------------------------------------
  Sum of atomic charges =     0.000000

 -----------------------------------------------------------------
                    Cartesian Multipole Moments
 -----------------------------------------------------------------
    Charge (ESU x 10^10)
                 0.0000
    Dipole Moment (Debye)
         X       0.0000      Y      -7.2980      Z       3.3874
       Tot       8.0459
    Quadrupole Moments (Debye-Ang)
        XX     -84.9635     XY      -0.0001     YY     -82.8418
        XZ      -0.0004     YZ      -6.3222     ZZ     -79.7042
    Octopole Moments (Debye-Ang^2)
       XXX      -0.0033    XXY     -44.5757    XYY      -0.0011
       YYY      58.7149    XXZ      19.2800    XYZ      -0.0001
       YYZ       4.1762    XZZ      -0.0007    YZZ      19.2028
       ZZZ      -2.7527
    Hexadecapole Moments (Debye-Ang^3)
      XXXX   -1440.2061   XXXY      -0.0073   XXYY    -326.9720
      XYYY      -0.0046   YYYY    -537.2094   XXXZ      -0.0029
      XXYZ     -41.4784   XYYZ      -0.0010   YYYZ    -100.2121
      XXZZ    -226.7266   XYZZ      -0.0013   YYZZ    -151.6300
      XZZZ      -0.0025   YZZZ    -104.9562   ZZZZ    -334.5100
 -----------------------------------------------------------------
Archival summary:
1\1\hpc3918\OPT\ProcedureUnspecified\BasisUnspecified\r214(+,1)\liqiuy\FriJan1719:43:142020FriJan1719:43:142020\0\\#,OPT,ProcedureUnspecified,BasisUnspecified,\\56,1\Zr\O,1,1.77889\O,1,2.00577,2,117.298\Zr,3,2.00575,1,100.768,2,127.5,0\O,4,1.7789,3,117.298,1,-127.502,0\O,1,2.14573,2,113.827,3,92.9833,0\S,6,1.78361,1,88.4551,2,141.684,0\\\@

 Total job time:  1045.94s(wall), 8812.27s(cpu) 
 Fri Jan 17 19:43:14 2020

        *************************************************************
        *                                                           *
        *  Thank you very much for using Q-Chem.  Have a nice day.  *
        *                                                           *
        *************************************************************


0 sent ACK to 0 
now end server 0 ... 
cleanup process ... done
