
Running Job 1 of 2 ZrOx.in
qchem ZrOx.in_4293.0 /tmp/5732628.priya/ZrOx.save/ 1
/usr/usc/qchem/4.4/bin/mpi/mpirun_qchem -machinefile /usr/usc/qchem/4.4/bin/mpi/machines -np 1 /usr/usc/qchem/4.4/exe/qcprog.exe ZrOx.in_4293.0 /tmp/5732628.priya/ZrOx.save/

Process 0 of 1 is on hpc3450.hpcc.usc.edu - thread support 0
initial socket setup ...start
initial socket setup ...done 
now start server 0 ... 
Check license passed

                  Welcome to Q-Chem
     A Quantum Leap Into The Future Of Chemistry


 Q-Chem 4.4, Q-Chem, Inc., Pleasanton, CA (2016)

 Y. Shao,  Z. Gan,  E. Epifanovsky,  A. T. B. Gilbert,  M. Wormit,  
 J. Kussmann,  A. W. Lange,  A. Behn,  J. Deng,  X. Feng,  D. Ghosh,  
 M. Goldey,  P. R. Horn,  L. D. Jacobson,  I. Kaliman,  F.Rob,  
 R. Z. Khaliullin,  T. Kus,  A. Landau,  J. Liu,  E. I. Proynov,  Y. M. Rhee,  
 R. M. Richard,  M. A. Rohrdanz,  R. P. Steele,  E. J. Sundstrom,  
 H. L. Woodcock III,  P. M. Zimmerman,  D. Zuev,  B. Albrecht,  E. Alguire,  
 B. Austin,  S. A. Baeppler,  G. J. O. Beran,  Y. A. Bernard,  E. Berquist,  
 K. Brandhorst,  K. B. Bravaya,  S. T. Brown,  D. Casanova,  C.-M. Chang,  
 Y. Chen,  S. H. Chien,  K. D. Closser,  M. P. Coons,  D. L. Crittenden,  
 S. Dasgupta,  M. Diedenhofen,  R. A. DiStasio Jr.,  H. Do,  A. D. Dutoi,  
 R. G. Edgar,  P.-T. Fang,  S. Fatehi,  Q. Feng,  L. Fusti-Molnar,  
 A. Ghysels,  A. Golubeva-Zadorozhnaya,  J. Gomes,  A. Gunina,  
 M. W. D. Hanson-Heine,  P. H. P. Harbach,  A. W. Hauser,  E. G. Hohenstein,  
 Z. C. Holden,  K. Hui,  T.-C. Jagau,  H. Ji,  B. Kaduk,  K. Khistyaev,  
 Jaehoon Kim,  Jihan Kim,  R. A. King,  P. Klunzinger,  D. Kosenkov,  
 T. Kowalczyk,  C. M. Krauter,  A. Kunitsa,  K. U. Lao,  A. Laurent,  
 K. V. Lawler,  D. Lefrancois,  S. Lehtola,  S. V. Levchenko,  C. Y. Lin,  
 Y.-S. Lin,  F. Liu,  E. Livshits,  R. C. Lochan,  A. Luenser,  P. Manohar,  
 S. F. Manzer,  S.-P. Mao,  Y. Mao,  N. Mardirossian,  A. V. Marenich,  
 L. A. Martinez-Martinez,  S. A. Maurer,  N. J. Mayhall,  J.-M. Mewes,  
 A. F. Morrison,  K. Nanda,  C. M. Oana,  R. Olivares-Amaya,  D. P. O'Neill,  
 J. A. Parkhill,  T. M. Perrine,  R. Peverati,  P. A. Pieniazek,  F. Plasser,  
 A. Prociuk,  D. R. Rehn,  E. Rosta,  N. J. Russ,  N. Sergueev,  
 S. M. Sharada,  S. Sharma,  D. W. Small,  A. Sodt,  T. Stauch,  T. Stein,  
 D. Stuck,  Y.-C. Su,  A. J. W. Thom,  T. Tsuchimochi,  L. Vogt,  O. Vydrov,  
 T. Wang,  M. A. Watson,  J. Wenzel,  A. White,  C. F. Williams,  
 V. Vanovschi,  S. Yeganeh,  S. R. Yost,  Z.-Q. You,  I. Y. Zhang,  X. Zhang,  
 Y. Zhao,  B. R. Brooks,  G. K. L. Chan,  D. M. Chipman,  C. J. Cramer,  
 W. A. Goddard III,  M. S. Gordon,  W. J. Hehre,  A. Klamt,  
 H. F. Schaefer III,  M. W. Schmidt,  C. D. Sherrill,  D. G. Truhlar,  
 A. Warshel,  X. Xu,  A. Aspuru-Guzik,  R. Baer,  A. T. Bell,  N. A. Besley,  
 J.-D. Chai,  A. Dreuw,  B. D. Dunietz,  T. R. Furlani,  S. R. Gwaltney,  
 C.-P. Hsu,  Y. Jung,  J. Kong,  D. S. Lambrecht,  W. Liang,  C. Ochsenfeld,  
 V. A. Rassolov,  L. V. Slipchenko,  J. E. Subotnik,  T. Van Voorhis,  
 J. M. Herbert,  A. I. Krylov,  P. M. W. Gill,  M. Head-Gordon

 Contributors to earlier versions of Q-Chem not listed above: 
 R. D. Adamson,  J. Baker,  E. F. C. Byrd,  A. K. Chakraborty,  C.-L. Cheng,  
 H. Dachsel,  R. J. Doerksen,  G. Hawkins,  A. Heyden,  S. Hirata,  
 G. Kedziora,  F. J. Keil,  C. Kelley,  P. P. Korambath,  W. Kurlancheek,  
 A. M. Lee,  M. S. Lee,  D. Liotard,  I. Lotan,  P. E. Maslen,  N. Nair,  
 D. Neuhauser,  R. Olson,  B. Peters,  J. Ritchie,  N. E. Schultz,  
 N. Shenvi,  A. C. Simmonett,  K. S. Thanthiriwatte,  Q. Wu,  W. Zhang

 Please cite Q-Chem as follows:
 Y. Shao et al., Mol. Phys. 113, 184-215 (2015)
 DOI: 10.1080/00268976.2014.952696

 Q-Chem 4.4.1 for Intel X86 Linux

 Parts of Q-Chem use Armadillo 5.200.1 (Boston Tea Smuggler).
 http://arma.sourceforge.net/

 Q-Chem begins on Fri Jan 17 19:27:05 2020  

Host: 
0

     Scratch files written to /tmp/5732628.priya/ZrOx.save//
 Jul2716 11668_ 21447  21445 5558   
 Parallel job on  1  processors
Processing $rem in /usr/usc/qchem/4.4/config/preferences.
 MEM_TOTAL  2000 

Checking the input file for inconsistencies... 	...done.

--------------------------------------------------------------
User input:
--------------------------------------------------------------
$comment
--------------------------------------------------------
A SINGLE POINT DFT CALCULATION WITH BASIS SET PROJECTION
--------------------------------------------------------
$end

$molecule
0 3
Zr 1.02583 0.07411 -0.00089
Zr -1.59578 0.12721 -0.00136
O -0.11563 -1.35824 0.01908
O -0.07658 0.77021 1.31926
O -0.07990 0.73328 -1.33847
O -3.06642 -0.69403 0.00795
S 3.15368 -0.24364 0.00234
$end

$rem
JOBTYPE   SP
METHOD   B3LYP
BASIS   GEN
ECP   GEN
MAX_SCF_CYCLES   200
SCF_CONVERGENCE 8
SCF_PRINT 1
PDB_PRINT 2
THRESH 14
VARTHRESH 14
INCDFT FALSE
SYMMETRY False
Sym_ignore True
SCF_ALGORITHM GDM
XC_GRID 000128000302
DFT_D           EMPIRICAL_GRIMME3
DFT_D3_S6       1000
DFT_D3_RS6     1261
DFT_D3_S8      1703
DFT_D3_3BODY    FALSE
$end

$basis
O
6-31+G**
****
S
6-31+G**
****
Zr
LanL2DZ
****
$end

$ecp
Zr
LanL2DZ
****
$end

--------------------------------------------------------------
 ----------------------------------------------------------------
             Standard Nuclear Orientation (Angstroms)
    I     Atom           X                Y                Z
 ----------------------------------------------------------------
    1      Zr      1.0258300000     0.0741100000    -0.0008900000
    2      Zr     -1.5957800000     0.1272100000    -0.0013600000
    3      O      -0.1156300000    -1.3582400000     0.0190800000
    4      O      -0.0765800000     0.7702100000     1.3192600000
    5      O      -0.0799000000     0.7332800000    -1.3384700000
    6      O      -3.0664200000    -0.6940300000     0.0079500000
    7      S       3.1536800000    -0.2436400000     0.0023400000
 ----------------------------------------------------------------
 Nuclear Repulsion Energy =   432.5811981151 hartrees
 There are       37 alpha and       35 beta electrons

 Q-Chem warning in module /home/scratch/svnadmin/11668_zgan/qchem/forms1/BasisType.C, line 1419:

 Setting pure/cartesian flag to 2111 for general basis


 Requested basis set is non-standard
 There are 42 shells and 138 basis functions

 Total QAlloc Memory Limit   2000 MB
 Mega-Array Size        61 MB
 MEM_STATIC part        62 MB

                       Distance Matrix (Angstroms)
             Zr(  1)   Zr(  2)   O (  3)   O (  4)   O (  5)   O (  6)
   Zr(  2)  2.622148
   O (  3)  1.831654  2.097099
   O (  4)  1.855440  2.113162  2.494452
   O (  5)  1.856412  2.110231  2.493727  2.657989
   O (  6)  4.163728  1.684430  3.024642  3.578083  3.573424
   S (  7)  2.151446  4.763918  3.454128  3.632733  3.634307  6.236387

 
 A cutoff of  1.0D-14 yielded    868 shell pairs
 There are      9576 function pairs (     10881 Cartesian)
 
 -------------------------------------------------------
 OpenMP Integral Computing Module                       
 Release: version 1.0, May 2013, Q-Chem Inc. Pittsburgh 
 -------------------------------------------------------
 Integral Job Info:
 Integral job number is                      11
 Integral operator is                         1
 short-range coefficients                     0
 long-range coefficients              100000000
 Omega coefficients                           0
 if combine SR and LR in K                    0
 Integral screening is                        0
 Integral computing path is                   2
 max size of driver memory is            800000
 size of driver memory is                593474
 size of scratch memory is             15166112
 max col of scratch BK array               1296
 max len of scratch array in speh3          155
 max len of scratch index in speh4           18
 max int batch size is                      520
 min int batch size is                       52
 fixed nKL is                                52
 max L of basis functions is                  2
 order of int derivative is                   0
 number of shells is                         42
 number of basis is                         147
 number of cartesian basis is               147
 number of contracted shell pairs           868
 number of primitive shell pairs           4103
 maxK2 (contraction) of shell pair           36
 max number of K2 of shell pair               1
 max number of CS2 of shell pair             70
 max number of PS2 of shell pair            372
 mem total for path MDJ                   36808
 -------------------------------------------------------
 Requested basis set is non-standard
 Compound shells will be simplified
 There are 58 shells and 138 basis functions
 A cutoff of  1.0D-14 yielded   1650 shell pairs
 There are      9528 function pairs (     10833 Cartesian)
 Smallest overlap matrix eigenvalue = 5.47E-04

 Scale SEOQF with 1.000000e-01/1.000000e-01/1.000000e-01

 Standard Electronic Orientation quadrupole field applied
 Nucleus-field energy     =     0.0000000090 hartrees
 Guess MOs from core Hamiltonian diagonalization
 An unrestricted hybrid HF-DFT SCF calculation will be
 performed using Geometric Direct Minimization
 Exchange:     0.2000 Hartree-Fock + 0.0800 Slater + 0.7200 B88
 Correlation:  0.1900 VWN1RPA + 0.8100 LYP
 Using Euler-Maclaurin-Lebedev (128,302) quadrature formula
 Dispersion:   Grimme D3
 SCF converges when RMS gradient is below 1.0E-08
 Maximum number of minimization steps = 200
 using 12 threads for integral computing 
 -------------------------------------------------------
 OpenMP BLAS3 based DFT computing Module                
 Release: version 1.0, May 2013, Q-Chem Inc. Pittsburgh 
 -------------------------------------------------------
 
   ------------------- Entering Geometric Direct Minimization ------------------
   GDM:         diagonal hessian shift is      0.000000000000000E+000
   GDM::PreWSS: input subspace size is                  1
   GDM::PreWSS: working subspace size set to            1
   GDM::PrEWSS: # of linearly dependent vectors =            0
   GDM::PrEWSS: Max dev from orthonormality =   0.000000000000000E+000
   GDM::BFGS:   lowest Hinv e-value     1.00000000000000     
   GDM::BFGS:   highest Hinv e-value    1.00000000000000     
   GDM::      : max scaling in EWCs is          1.41421356237309     
   GDM::      : max rotation in step is       -0.100702483119230     
   GDM::        grad.step =   -3.70427680479213     
   ------- Leaving GDM -- hopefully with a step in the right direction! --------
 
 ---------------------------------------
  Cycle       Energy        RMS Gradient
 ---------------------------------------
    1    -733.4835032792      2.42E+00  Gap = 0.00 eV  Descent step
 
   ------------------- Entering Geometric Direct Minimization ------------------
   GDM::trust : actual energy change is        -3.66928774148994     
   GDM::trust : predicted energy change was   -0.163350000000000     
   GDM::trust : updated trust radius is        0.330000000000000     
   GDM:         diagonal hessian shift is      0.000000000000000E+000
   GDM::PreWSS: input subspace size is                  2
   GDM::PreWSS: working subspace size set to            2
   GDM::PrEWSS: # of linearly dependent vectors =            0
   GDM::PrEWSS: Max dev from orthonormality =   5.471317843230850E-015
   GDM::BFGS:   lowest Hinv e-value    0.438875890282943     
   GDM::BFGS:   highest Hinv e-value    3.46414055795768     
   GDM::      : max scaling in EWCs is          1.41421356237309     
   GDM::      : max rotation in step is       -6.432822996926280E-002
   GDM::        grad.step =   -3.62516107174582     
   ------- Leaving GDM -- hopefully with a step in the right direction! --------
 
    2    -737.1527910207      1.51E+00  Gap = -107.84 eV  Descent step
 
   ------------------- Entering Geometric Direct Minimization ------------------
   GDM::trust : actual energy change is        -3.58193569755008     
   GDM::trust : predicted energy change was   -0.131039698318499     
   GDM::trust : updated trust radius is        0.330000000000000     
   GDM::search:  On step            1 .  The current bracket is:
       left   : x =  0.0000E+00, e =      -737.1527910207, g = -0.1029E+02
       current: x =  0.3524E+00, e =      -740.7347267183, g = -0.9993E+01
       right  : x =  0.1000E+04, e =      1000.0000000000, g =  0.1000E+04
       next   : x =  0.3524E+01
   GDM::      : max rotation in step is       -0.643282299692628     
   ------- Leaving GDM -- hopefully with a step in the right direction! --------
 
    3    -740.7347267183      1.47E+00  Gap = -107.84 eV  Line search: understep
 
   ------------------- Entering Geometric Direct Minimization ------------------
   GDM::trust : actual energy change is        -20.1300352735423     
   GDM::trust : predicted energy change was   -0.131039698318499     
   GDM::trust : updated trust radius is        0.330000000000000     
   GDM:         diagonal hessian shift is      0.000000000000000E+000
   GDM::PreWSS: input subspace size is                  3
   GDM::PreWSS: working subspace size set to            3
   GDM::PrEWSS: # of linearly dependent vectors =            0
   GDM::PrEWSS: Max dev from orthonormality =   1.501992974439759E-013
   GDM::BFGS:   lowest Hinv e-value    0.491784376242483     
   GDM::BFGS:   highest Hinv e-value    2.13220785405599     
   GDM::      : max scaling in EWCs is          2.82842712474619     
   GDM::      : max rotation in step is       -0.178115461871091     
   GDM::        grad.step =   -2.46169872519227     
   ------- Leaving GDM -- hopefully with a step in the right direction! --------
 
    4    -757.2828262943      1.42E+00  Gap = -107.84 eV  Descent step
 
   ------------------- Entering Geometric Direct Minimization ------------------
   GDM::trust : actual energy change is        -2.38276901787970     
   GDM::trust : predicted energy change was   -0.174654020016477     
   GDM::trust : updated trust radius is        0.330000000000000     
   GDM:         diagonal hessian shift is      0.000000000000000E+000
   GDM::PreWSS: input subspace size is                  4
   GDM::PreWSS: working subspace size set to            4
   GDM::PrEWSS: # of linearly dependent vectors =            0
   GDM::PrEWSS: Max dev from orthonormality =   6.227449111939620E-013
   GDM::BFGS:   lowest Hinv e-value    0.409596170120098     
   GDM::BFGS:   highest Hinv e-value    2.83948050830522     
   GDM::      : max scaling in EWCs is          2.82842712474619     
   GDM::      : max rotation in step is        0.162835047864821     
   GDM::        grad.step =   -1.98870857516378     
   ------- Leaving GDM -- hopefully with a step in the right direction! --------
 
    5    -759.6655953121      1.05E+00  Gap = -107.84 eV  Descent step
 
   ------------------- Entering Geometric Direct Minimization ------------------
   GDM::trust : actual energy change is        -1.93448827157806     
   GDM::trust : predicted energy change was   -0.156196531685650     
   GDM::trust : updated trust radius is        0.330000000000000     
   GDM:         diagonal hessian shift is      0.000000000000000E+000
   GDM::PreWSS: input subspace size is                  5
   GDM::PreWSS: working subspace size set to            5
   GDM::PrEWSS: # of linearly dependent vectors =            0
   GDM::PrEWSS: Max dev from orthonormality =   1.555172657319304E-012
   GDM::BFGS:   lowest Hinv e-value    0.304588376734752     
   GDM::BFGS:   highest Hinv e-value    2.50388808647657     
   GDM::      : max scaling in EWCs is          2.82842712474619     
   GDM::      : max rotation in step is        0.148193650487992     
   GDM::        grad.step =   -1.82638274119755     
   ------- Leaving GDM -- hopefully with a step in the right direction! --------
 
    6    -761.6000835837      1.04E+00  Gap = -107.84 eV  Descent step
 
   ------------------- Entering Geometric Direct Minimization ------------------
   GDM::trust : actual energy change is        -1.77533445479582     
   GDM::trust : predicted energy change was   -0.143498265136197     
   GDM::trust : updated trust radius is        0.330000000000000     
   GDM:         diagonal hessian shift is      0.000000000000000E+000
   GDM::PreWSS: input subspace size is                  6
   GDM::PreWSS: working subspace size set to            6
   GDM::PrEWSS: # of linearly dependent vectors =            0
   GDM::PrEWSS: Max dev from orthonormality =   5.021223020706955E-012
   GDM::BFGS:   lowest Hinv e-value    0.221900163780575     
   GDM::BFGS:   highest Hinv e-value    2.91245125419001     
   GDM::      : max scaling in EWCs is          2.82842712474619     
   GDM::      : max rotation in step is        0.333396840297401     
   GDM::        grad.step =   -1.87536533618207     
   ------- Leaving GDM -- hopefully with a step in the right direction! --------
 
    7    -763.3754180385      2.03E+00  Gap = -107.84 eV  Descent step
 
   ------------------- Entering Geometric Direct Minimization ------------------
   GDM::trust : actual energy change is        -1.81575281773678     
   GDM::trust : predicted energy change was   -0.140312168833558     
   GDM::trust : updated trust radius is        0.330000000000000     
   GDM:         diagonal hessian shift is      0.000000000000000E+000
   GDM::PreWSS: input subspace size is                  7
   GDM::PreWSS: working subspace size set to            7
   GDM::PrEWSS: # of linearly dependent vectors =            0
   GDM::PrEWSS: Max dev from orthonormality =   1.507016733626187E-012
   GDM::BFGS:   lowest Hinv e-value    0.213525899281582     
   GDM::BFGS:   highest Hinv e-value    2.80042884406545     
   GDM::      : max scaling in EWCs is          2.82842712474619     
   GDM::      : max rotation in step is        9.862279685798922E-002
   GDM::        grad.step =   -1.54503225112836     
   ------- Leaving GDM -- hopefully with a step in the right direction! --------
 
    8    -765.1911708562      8.58E-01  Gap = -107.84 eV  Descent step
 
   ------------------- Entering Geometric Direct Minimization ------------------
   GDM::trust : actual energy change is        -1.49717280104517     
   GDM::trust : predicted energy change was   -0.145909183009709     
   GDM::trust : updated trust radius is        0.330000000000000     
   GDM::search:  On step            1 .  The current bracket is:
       left   : x =  0.0000E+00, e =      -765.1911708562, g = -0.3479E+01
       current: x =  0.4441E+00, e =      -766.6883436573, g = -0.3230E+01
       right  : x =  0.1000E+04, e =      1000.0000000000, g =  0.1000E+04
       next   : x =  0.4441E+01
   GDM::      : max rotation in step is        0.986227968579892     
   ------- Leaving GDM -- hopefully with a step in the right direction! --------
 
    9    -766.6883436573      4.13E-01  Gap = -107.84 eV  Line search: understep
 
   ------------------- Entering Geometric Direct Minimization ------------------
   GDM::trust : actual energy change is        0.868369323083016     
   GDM::trust : predicted energy change was   -0.145909183009709     
   GDM::trust : updated trust radius is        0.108900000000000     
   GDM::search:  On step            2 .  The current bracket is:
       left   : x =  0.4441E+00, e =      -766.6883436573, g = -0.3230E+01
       current: x =  0.4441E+01, e =      -764.3228015332, g =  0.5087E+01
       right  : x =  0.1000E+04, e =         0.0000000000, g =  0.0000E+00
       next   : x =  0.1689E+01
   GDM::      : max rotation in step is        0.375066838932497     
   ------- Leaving GDM -- hopefully with a step in the right direction! --------
 
   10    -764.3228015332      1.25E+00  Gap = -107.84 eV  Line search: overstep
 
   ------------------- Entering Geometric Direct Minimization ------------------
   GDM::trust : actual energy change is        -4.54763991199923     
   GDM::trust : predicted energy change was   -0.145909183009709     
   GDM::trust : updated trust radius is        0.108900000000000     
   GDM:         diagonal hessian shift is      0.000000000000000E+000
   GDM::PreWSS: input subspace size is                  8
   GDM::PreWSS: working subspace size set to            8
   GDM::PrEWSS: # of linearly dependent vectors =            0
   GDM::PrEWSS: Max dev from orthonormality =   3.258223552071726E-012
   GDM::BFGS:   lowest Hinv e-value    0.220740394288658     
   GDM::BFGS:   highest Hinv e-value    3.53147594913641     
   GDM::      : max scaling in EWCs is          2.82842712474619     
   GDM::      : max rotation in step is        4.972309013417785E-002
   GDM::        grad.step =  -0.456929395653520     
   ------- Leaving GDM -- hopefully with a step in the right direction! --------
 
   11    -769.7388107682      8.34E-01  Gap = -107.84 eV  Descent step
 
   ------------------- Entering Geometric Direct Minimization ------------------
   GDM::trust : actual energy change is       -0.458166489735845     
   GDM::trust : predicted energy change was   -1.797421428955416E-002
   GDM::trust : updated trust radius is        0.330000000000000     
   GDM::search:  On step            1 .  The current bracket is:
       left   : x =  0.0000E+00, e =      -769.7388107682, g = -0.2362E+01
       current: x =  0.1935E+00, e =      -770.1969772580, g = -0.2373E+01
       right  : x =  0.1000E+04, e =      1000.0000000000, g =  0.1000E+04
       next   : x =  0.1935E+01
   GDM::      : max rotation in step is        0.497230901341778     
   ------- Leaving GDM -- hopefully with a step in the right direction! --------
 
   12    -770.1969772580      2.73E+00  Gap = -107.84 eV  Line search: understep
 
   ------------------- Entering Geometric Direct Minimization ------------------
   GDM::trust : actual energy change is        -3.97295532425562     
   GDM::trust : predicted energy change was   -1.797421428955416E-002
   GDM::trust : updated trust radius is        0.330000000000000     
   GDM:         diagonal hessian shift is      0.000000000000000E+000
   GDM::PreWSS: input subspace size is                  9
   GDM::PreWSS: working subspace size set to            9
   GDM::PrEWSS: # of linearly dependent vectors =            0
   GDM::PrEWSS: Max dev from orthonormality =   8.800540157727355E-012
   GDM::BFGS:   lowest Hinv e-value    0.220241405785471     
   GDM::BFGS:   highest Hinv e-value    4.54461662209748     
   GDM::      : max scaling in EWCs is          2.82842712474619     
   GDM::      : max rotation in step is       -0.174377579995304     
   GDM::        grad.step =   -1.37726920690031     
   ------- Leaving GDM -- hopefully with a step in the right direction! --------
 
   13    -773.7117660925      1.08E+00  Gap = -107.84 eV  Descent step
 
   ------------------- Entering Geometric Direct Minimization ------------------
   GDM::trust : actual energy change is        -1.35193372032154     
   GDM::trust : predicted energy change was   -0.172131257828010     
   GDM::trust : updated trust radius is        0.330000000000000     
   GDM:         diagonal hessian shift is      0.000000000000000E+000
   GDM::PreWSS: input subspace size is                 10
   GDM::PreWSS: working subspace size set to           10
   GDM::PrEWSS: # of linearly dependent vectors =            0
   GDM::PrEWSS: Max dev from orthonormality =   3.701977960290925E-012
   GDM::BFGS:   lowest Hinv e-value    0.181060676089842     
   GDM::BFGS:   highest Hinv e-value    8.03097392999526     
   GDM::      : max scaling in EWCs is          2.82842712474619     
   GDM::      : max rotation in step is       -0.421718869228476     
   GDM::        grad.step =   -1.55193716867739     
   ------- Leaving GDM -- hopefully with a step in the right direction! --------
 
   14    -775.0636998128      2.28E+00  Gap = -107.84 eV  Descent step
 
   ------------------- Entering Geometric Direct Minimization ------------------
   GDM::trust : actual energy change is        -1.48956468007077     
   GDM::trust : predicted energy change was   -0.136107237769049     
   GDM::trust : updated trust radius is        0.330000000000000     
   GDM:         diagonal hessian shift is      0.000000000000000E+000
   GDM::PreWSS: input subspace size is                 11
   GDM::PreWSS: working subspace size set to           11
   GDM::PrEWSS: # of linearly dependent vectors =            0
   GDM::PrEWSS: Max dev from orthonormality =   3.989465008347182E-012
   GDM::BFGS:   lowest Hinv e-value    0.178912119179538     
   GDM::BFGS:   highest Hinv e-value    6.52809162975732     
   GDM::      : max scaling in EWCs is          2.82842712474619     
   GDM::      : max rotation in step is       -0.178865975608741     
   GDM::        grad.step =   -1.32803395400952     
   ------- Leaving GDM -- hopefully with a step in the right direction! --------
 
   15    -776.5532644929      7.71E-01  Gap = -107.84 eV  Descent step
 
   ------------------- Entering Geometric Direct Minimization ------------------
   GDM::trust : actual energy change is        -1.25723101077244     
   GDM::trust : predicted energy change was   -0.152006006466059     
   GDM::trust : updated trust radius is        0.330000000000000     
   GDM:         diagonal hessian shift is      0.000000000000000E+000
   GDM::PreWSS: input subspace size is                 12
   GDM::PreWSS: working subspace size set to           12
   GDM::PrEWSS: # of linearly dependent vectors =            0
   GDM::PrEWSS: Max dev from orthonormality =   2.232153697989681E-012
   GDM::BFGS:   lowest Hinv e-value    0.150062738346700     
   GDM::BFGS:   highest Hinv e-value    7.39135482592946     
   GDM::      : max scaling in EWCs is          2.82842712474619     
   GDM::      : max rotation in step is        0.127320189849014     
   GDM::        grad.step =   -1.22097217591637     
   ------- Leaving GDM -- hopefully with a step in the right direction! --------
 
   16    -777.8104955037      7.10E-01  Gap = -107.84 eV  Descent step
 
   ------------------- Entering Geometric Direct Minimization ------------------
   GDM::trust : actual energy change is        -1.16625423867379     
   GDM::trust : predicted energy change was   -0.157296938908686     
   GDM::trust : updated trust radius is        0.330000000000000     
   GDM:         diagonal hessian shift is      0.000000000000000E+000
   GDM::PreWSS: input subspace size is                 13
   GDM::PreWSS: working subspace size set to           13
   GDM::PrEWSS: # of linearly dependent vectors =            0
   GDM::PrEWSS: Max dev from orthonormality =   5.744594036571904E-012
   GDM::BFGS:   lowest Hinv e-value    0.157937314079053     
   GDM::BFGS:   highest Hinv e-value    7.98224542404188     
   GDM::      : max scaling in EWCs is          2.82842712474619     
   GDM::      : max rotation in step is        0.226470763236222     
   GDM::        grad.step =   -1.14644085452391     
   ------- Leaving GDM -- hopefully with a step in the right direction! --------
 
   17    -778.9767497423      8.43E-01  Gap = -107.84 eV  Descent step
 
   ------------------- Entering Geometric Direct Minimization ------------------
   GDM::trust : actual energy change is        -1.08420348384084     
   GDM::trust : predicted energy change was   -0.152022201375366     
   GDM::trust : updated trust radius is        0.330000000000000     
   GDM:         diagonal hessian shift is      0.000000000000000E+000
   GDM::PreWSS: input subspace size is                 14
   GDM::PreWSS: working subspace size set to           14
   GDM::PrEWSS: # of linearly dependent vectors =            0
   GDM::PrEWSS: Max dev from orthonormality =   4.963015241832291E-012
   GDM::BFGS:   lowest Hinv e-value    0.150278288157941     
   GDM::BFGS:   highest Hinv e-value    8.54633312842253     
   GDM::      : max scaling in EWCs is          2.82842712474619     
   GDM::      : max rotation in step is        0.146910021935236     
   GDM::        grad.step =  -0.989225771634759     
   ------- Leaving GDM -- hopefully with a step in the right direction! --------
 
   18    -780.0609532262      4.82E-01  Gap = -107.84 eV  Descent step
 
   ------------------- Entering Geometric Direct Minimization ------------------
   GDM::trust : actual energy change is       -0.946894338611514     
   GDM::trust : predicted energy change was   -0.147938373865580     
   GDM::trust : updated trust radius is        0.330000000000000     
   GDM:         diagonal hessian shift is      0.000000000000000E+000
   GDM::PreWSS: input subspace size is                 15
   GDM::PreWSS: working subspace size set to           15
   GDM::PrEWSS: # of linearly dependent vectors =            0
   GDM::PrEWSS: Max dev from orthonormality =   4.795945758584441E-012
   GDM::BFGS:   lowest Hinv e-value    0.128907375504644     
   GDM::BFGS:   highest Hinv e-value    9.16378161730341     
   GDM::      : max scaling in EWCs is          2.82842712474619     
   GDM::      : max rotation in step is        0.149776968099492     
   GDM::        grad.step =  -0.930574903692555     
   ------- Leaving GDM -- hopefully with a step in the right direction! --------
 
   19    -781.0078475648      4.53E-01  Gap = -107.84 eV  Descent step
 
   ------------------- Entering Geometric Direct Minimization ------------------
   GDM::trust : actual energy change is       -0.901603000275259     
   GDM::trust : predicted energy change was   -0.134947198383718     
   GDM::trust : updated trust radius is        0.330000000000000     
   GDM:         diagonal hessian shift is      0.000000000000000E+000
   GDM::PreWSS: input subspace size is                 16
   GDM::PreWSS: working subspace size set to           16
   GDM::PrEWSS: # of linearly dependent vectors =            0
   GDM::PrEWSS: Max dev from orthonormality =   6.750240991171275E-012
   GDM::BFGS:   lowest Hinv e-value    0.107889002666542     
   GDM::BFGS:   highest Hinv e-value    9.83866661631254     
   GDM::      : max scaling in EWCs is          2.82842712474619     
   GDM::      : max rotation in step is        0.140622324655979     
   GDM::        grad.step =  -0.926795214780326     
   ------- Leaving GDM -- hopefully with a step in the right direction! --------
 
   20    -781.9094505651      4.89E-01  Gap = -107.84 eV  Descent step
 
   ------------------- Entering Geometric Direct Minimization ------------------
   GDM::trust : actual energy change is       -0.882163651173300     
   GDM::trust : predicted energy change was   -0.131707585821496     
   GDM::trust : updated trust radius is        0.330000000000000     
   GDM:         diagonal hessian shift is      0.000000000000000E+000
   GDM::PreWSS: input subspace size is                 17
   GDM::PreWSS: working subspace size set to           17
   GDM::PrEWSS: # of linearly dependent vectors =            0
   GDM::PrEWSS: Max dev from orthonormality =   7.841543386843952E-012
   GDM::BFGS:   lowest Hinv e-value    8.019482156130084E-002
   GDM::BFGS:   highest Hinv e-value    10.8334909792305     
   GDM::      : max scaling in EWCs is          2.82842712474619     
   GDM::      : max rotation in step is        0.165432012785141     
   GDM::        grad.step =  -0.891892037963214     
   ------- Leaving GDM -- hopefully with a step in the right direction! --------
 
   21    -782.7916142162      6.21E-01  Gap = -107.84 eV  Descent step
 
   ------------------- Entering Geometric Direct Minimization ------------------
   GDM::trust : actual energy change is       -0.865126456325129     
   GDM::trust : predicted energy change was   -0.150587843565978     
   GDM::trust : updated trust radius is        0.330000000000000     
   GDM:         diagonal hessian shift is      0.000000000000000E+000
   GDM::PreWSS: input subspace size is                 18
   GDM::PreWSS: working subspace size set to           18
   GDM::PrEWSS: # of linearly dependent vectors =            0
   GDM::PrEWSS: Max dev from orthonormality =   7.365517917801156E-012
   GDM::BFGS:   lowest Hinv e-value    0.113504240364232     
   GDM::BFGS:   highest Hinv e-value    11.5392834797932     
   GDM::      : max scaling in EWCs is          2.82842712474619     
   GDM::      : max rotation in step is       -0.136946206642165     
   GDM::        grad.step =  -0.868211552777205     
   ------- Leaving GDM -- hopefully with a step in the right direction! --------
 
   22    -783.6567406726      8.83E-01  Gap = -107.84 eV  Descent step
 
   ------------------- Entering Geometric Direct Minimization ------------------
   GDM::trust : actual energy change is       -0.856613056831861     
   GDM::trust : predicted energy change was   -0.137846846934764     
   GDM::trust : updated trust radius is        0.330000000000000     
   GDM:         diagonal hessian shift is      0.000000000000000E+000
   GDM::PreWSS: input subspace size is                 19
   GDM::PreWSS: working subspace size set to           18
   GDM::PrEWSS: # of linearly dependent vectors =            0
   GDM::PrEWSS: Max dev from orthonormality =   4.657690899634304E-012
   GDM::BFGS:   lowest Hinv e-value    0.128126687934756     
   GDM::BFGS:   highest Hinv e-value    12.4636293210499     
   GDM::      : max scaling in EWCs is          2.82842712474619     
   GDM::      : max rotation in step is       -0.378181401143964     
   GDM::        grad.step =  -0.999857594288008     
   ------- Leaving GDM -- hopefully with a step in the right direction! --------
 
   23    -784.5133537294      1.54E+00  Gap = -107.84 eV  Descent step
 
   ------------------- Entering Geometric Direct Minimization ------------------
   GDM::trust : actual energy change is       -0.955261135681326     
   GDM::trust : predicted energy change was   -0.175465245024936     
   GDM::trust : updated trust radius is        0.330000000000000     
   GDM:         diagonal hessian shift is      0.000000000000000E+000
   GDM::PreWSS: input subspace size is                 19
   GDM::PreWSS: working subspace size set to           18
   GDM::PrEWSS: # of linearly dependent vectors =            0
   GDM::PrEWSS: Max dev from orthonormality =   2.579388092005530E-012
   GDM::BFGS:   lowest Hinv e-value    0.131487060444450     
   GDM::BFGS:   highest Hinv e-value    14.2488412001764     
   GDM::      : max scaling in EWCs is          2.82842712474619     
   GDM::      : max rotation in step is       -0.287151999882792     
   GDM::        grad.step =  -0.769562926909358     
   ------- Leaving GDM -- hopefully with a step in the right direction! --------
 
   24    -785.4686148651      1.06E+00  Gap = -107.84 eV  Descent step
 
   ------------------- Entering Geometric Direct Minimization ------------------
   GDM::trust : actual energy change is       -0.739747759601414     
   GDM::trust : predicted energy change was   -0.153220561927121     
   GDM::trust : updated trust radius is        0.330000000000000     
   GDM:         diagonal hessian shift is      0.000000000000000E+000
   GDM::PreWSS: input subspace size is                 19
   GDM::PreWSS: working subspace size set to           18
   GDM::PrEWSS: # of linearly dependent vectors =            0
   GDM::PrEWSS: Max dev from orthonormality =   3.488386662864329E-012
   GDM::BFGS:   lowest Hinv e-value    0.136362958114346     
   GDM::BFGS:   highest Hinv e-value    14.8184580959713     
   GDM::      : max scaling in EWCs is          2.82842712474619     
   GDM::      : max rotation in step is       -0.240731417836780     
   GDM::        grad.step =  -0.636466955449148     
   ------- Leaving GDM -- hopefully with a step in the right direction! --------
 
   25    -786.2083626247      9.42E-01  Gap = -107.84 eV  Descent step
 
   ------------------- Entering Geometric Direct Minimization ------------------
   GDM::trust : actual energy change is       -0.576116771670854     
   GDM::trust : predicted energy change was   -0.135841501954588     
   GDM::trust : updated trust radius is        0.330000000000000     
   GDM:         diagonal hessian shift is      0.000000000000000E+000
   GDM::PreWSS: input subspace size is                 19
   GDM::PreWSS: working subspace size set to           18
   GDM::PrEWSS: # of linearly dependent vectors =            0
   GDM::PrEWSS: Max dev from orthonormality =   2.230009579773373E-012
   GDM::BFGS:   lowest Hinv e-value    0.133023499006761     
   GDM::BFGS:   highest Hinv e-value    14.9436205604910     
   GDM::      : max scaling in EWCs is          2.82842712474619     
   GDM::      : max rotation in step is        0.213240010744459     
   GDM::        grad.step =  -0.549933054448909     
   ------- Leaving GDM -- hopefully with a step in the right direction! --------
 
   26    -786.7844793964      5.21E-01  Gap = -107.84 eV  Descent step
 
   ------------------- Entering Geometric Direct Minimization ------------------
   GDM::trust : actual energy change is       -0.468193563262730     
   GDM::trust : predicted energy change was   -0.151100894780915     
   GDM::trust : updated trust radius is        0.330000000000000     
   GDM:         diagonal hessian shift is      0.000000000000000E+000
   GDM::PreWSS: input subspace size is                 19
   GDM::PreWSS: working subspace size set to           18
   GDM::PrEWSS: # of linearly dependent vectors =            0
   GDM::PrEWSS: Max dev from orthonormality =   1.648264857934123E-012
   GDM::BFGS:   lowest Hinv e-value    0.113094048999278     
   GDM::BFGS:   highest Hinv e-value    15.6092641196029     
   GDM::      : max scaling in EWCs is          2.82842712474619     
   GDM::      : max rotation in step is       -0.166604139656321     
   GDM::        grad.step =  -0.468566248009584     
   ------- Leaving GDM -- hopefully with a step in the right direction! --------
 
   27    -787.2526729596      3.54E-01  Gap = -107.84 eV  Descent step
 
   ------------------- Entering Geometric Direct Minimization ------------------
   GDM::trust : actual energy change is       -0.401540492729055     
   GDM::trust : predicted energy change was   -0.192725122858042     
   GDM::trust : updated trust radius is        0.330000000000000     
   GDM:         diagonal hessian shift is      0.000000000000000E+000
   GDM::PreWSS: input subspace size is                 19
   GDM::PreWSS: working subspace size set to           18
   GDM::PrEWSS: # of linearly dependent vectors =            0
   GDM::PrEWSS: Max dev from orthonormality =   2.945590819869448E-012
   GDM::BFGS:   lowest Hinv e-value    8.154538051613831E-002
   GDM::BFGS:   highest Hinv e-value    15.0085429572745     
   GDM::      : max scaling in EWCs is          2.82842712474619     
   GDM::      : max rotation in step is        0.179098680335050     
   GDM::        grad.step =  -0.487383591995800     
   ------- Leaving GDM -- hopefully with a step in the right direction! --------
 
   28    -787.6542134523      3.89E-01  Gap = 0.00 eV  Descent step
 
   ------------------- Entering Geometric Direct Minimization ------------------
   GDM::trust : actual energy change is       -0.266570108824681     
   GDM::trust : predicted energy change was   -0.293890179792770     
   GDM::trust : updated trust radius is        0.330000000000000     
   GDM:         diagonal hessian shift is      0.000000000000000E+000
   GDM::PreWSS: input subspace size is                 19
   GDM::PreWSS: working subspace size set to           18
   GDM::PrEWSS: # of linearly dependent vectors =            0
   GDM::PrEWSS: Max dev from orthonormality =   1.719884651363301E-012
   GDM::BFGS:   lowest Hinv e-value    0.102670923139962     
   GDM::BFGS:   highest Hinv e-value    16.6538017282592     
   GDM::      : max scaling in EWCs is          2.82842712474619     
   GDM::      : max rotation in step is       -0.176559404564395     
   GDM::        grad.step =  -0.620597488640777     
   ------- Leaving GDM -- hopefully with a step in the right direction! --------
 
   29    -787.9207835612      4.50E-01  Gap = 0.00 eV  Descent step
 
   ------------------- Entering Geometric Direct Minimization ------------------
   GDM::trust : actual energy change is       -0.336077185348358     
   GDM::trust : predicted energy change was   -0.423722945249975     
   GDM::trust : updated trust radius is        0.330000000000000     
   GDM:         diagonal hessian shift is      0.000000000000000E+000
   GDM::PreWSS: input subspace size is                 19
   GDM::PreWSS: working subspace size set to           18
   GDM::PrEWSS: # of linearly dependent vectors =            0
   GDM::PrEWSS: Max dev from orthonormality =   4.160398588137770E-012
   GDM::BFGS:   lowest Hinv e-value    8.770724495672894E-002
   GDM::BFGS:   highest Hinv e-value    14.1802701987971     
   GDM::      : max scaling in EWCs is          2.82842712474619     
   GDM::      : max rotation in step is       -0.207473298369546     
   GDM::        grad.step =  -0.583443284656789     
   ------- Leaving GDM -- hopefully with a step in the right direction! --------
 
   30    -788.2568607465      4.56E-01  Gap = 0.00 eV  Descent step
 
   ------------------- Entering Geometric Direct Minimization ------------------
   GDM::trust : actual energy change is       -0.419897821713221     
   GDM::trust : predicted energy change was   -0.359933200456249     
   GDM::trust : updated trust radius is        0.330000000000000     
   GDM:         diagonal hessian shift is      0.000000000000000E+000
   GDM::PreWSS: input subspace size is                 19
   GDM::PreWSS: working subspace size set to           18
   GDM::PrEWSS: # of linearly dependent vectors =            0
   GDM::PrEWSS: Max dev from orthonormality =   1.574611968591100E-012
   GDM::BFGS:   lowest Hinv e-value    9.157776625534161E-002
   GDM::BFGS:   highest Hinv e-value    15.6235364709033     
   GDM::      : max scaling in EWCs is          2.82842712474619     
   GDM::      : max rotation in step is       -0.313355463769629     
   GDM::        grad.step =  -0.659822379764117     
   ------- Leaving GDM -- hopefully with a step in the right direction! --------
 
   31    -788.6767585682      7.95E-01  Gap = 0.00 eV  Descent step
 
   ------------------- Entering Geometric Direct Minimization ------------------
   GDM::trust : actual energy change is       -0.560921613701339     
   GDM::trust : predicted energy change was   -0.252479496716460     
   GDM::trust : updated trust radius is        0.330000000000000     
   GDM:         diagonal hessian shift is      0.000000000000000E+000
   GDM::PreWSS: input subspace size is                 19
   GDM::PreWSS: working subspace size set to           18
   GDM::PrEWSS: # of linearly dependent vectors =            0
   GDM::PrEWSS: Max dev from orthonormality =   1.614893982426757E-012
   GDM::BFGS:   lowest Hinv e-value    0.115175569704186     
   GDM::BFGS:   highest Hinv e-value    14.9227303708798     
   GDM::      : max scaling in EWCs is          2.82842712474619     
   GDM::      : max rotation in step is        0.421079556891855     
   GDM::        grad.step =  -0.742480099691311     
   ------- Leaving GDM -- hopefully with a step in the right direction! --------
 
   32    -789.2376801819      1.28E+00  Gap = 0.00 eV  Descent step
 
   ------------------- Entering Geometric Direct Minimization ------------------
   GDM::trust : actual energy change is       -0.664232360155893     
   GDM::trust : predicted energy change was   -0.214618371045974     
   GDM::trust : updated trust radius is        0.330000000000000     
   GDM:         diagonal hessian shift is      0.000000000000000E+000
   GDM::PreWSS: input subspace size is                 19
   GDM::PreWSS: working subspace size set to           18
   GDM::PrEWSS: # of linearly dependent vectors =            0
   GDM::PrEWSS: Max dev from orthonormality =   1.417354081323374E-012
   GDM::BFGS:   lowest Hinv e-value    0.136165208680049     
   GDM::BFGS:   highest Hinv e-value    15.3711126054190     
   GDM::      : max scaling in EWCs is          2.82842712474619     
   GDM::      : max rotation in step is        0.245435574114809     
   GDM::        grad.step =  -0.671007384731173     
   ------- Leaving GDM -- hopefully with a step in the right direction! --------
 
   33    -789.9019125421      8.92E-01  Gap = 0.00 eV  Descent step
 
   ------------------- Entering Geometric Direct Minimization ------------------
   GDM::trust : actual energy change is       -0.614573049595606     
   GDM::trust : predicted energy change was   -0.172584187236167     
   GDM::trust : updated trust radius is        0.330000000000000     
   GDM:         diagonal hessian shift is      0.000000000000000E+000
   GDM::PreWSS: input subspace size is                 19
   GDM::PreWSS: working subspace size set to           18
   GDM::PrEWSS: # of linearly dependent vectors =            0
   GDM::PrEWSS: Max dev from orthonormality =   1.847577646429954E-012
   GDM::BFGS:   lowest Hinv e-value    9.181693748754109E-002
   GDM::BFGS:   highest Hinv e-value    17.1946375847556     
   GDM::      : max scaling in EWCs is          2.82842712474619     
   GDM::      : max rotation in step is       -0.247740820560138     
   GDM::        grad.step =  -0.625490221731740     
   ------- Leaving GDM -- hopefully with a step in the right direction! --------
 
   34    -790.5164855917      5.57E-01  Gap = 0.00 eV  Descent step
 
   ------------------- Entering Geometric Direct Minimization ------------------
   GDM::trust : actual energy change is       -0.449107027303285     
   GDM::trust : predicted energy change was   -0.185547055747987     
   GDM::trust : updated trust radius is        0.330000000000000     
   GDM:         diagonal hessian shift is      0.000000000000000E+000
   GDM::PreWSS: input subspace size is                 19
   GDM::PreWSS: working subspace size set to           18
   GDM::PrEWSS: # of linearly dependent vectors =            0
   GDM::PrEWSS: Max dev from orthonormality =   3.469760936902766E-012
   GDM::BFGS:   lowest Hinv e-value    6.920793446743849E-002
   GDM::BFGS:   highest Hinv e-value    20.2221663821840     
   GDM::      : max scaling in EWCs is          2.82842712474619     
   GDM::      : max rotation in step is        0.313271497938519     
   GDM::        grad.step =  -0.609068476993240     
   ------- Leaving GDM -- hopefully with a step in the right direction! --------
 
   35    -790.9655926190      6.19E-01  Gap = 0.00 eV  Descent step
 
   ------------------- Entering Geometric Direct Minimization ------------------
   GDM::trust : actual energy change is       -0.276996994201227     
   GDM::trust : predicted energy change was   -0.500778519071651     
   GDM::trust : updated trust radius is        0.330000000000000     
   GDM:         diagonal hessian shift is      0.000000000000000E+000
   GDM::PreWSS: input subspace size is                 19
   GDM::PreWSS: working subspace size set to           18
   GDM::PrEWSS: # of linearly dependent vectors =            0
   GDM::PrEWSS: Max dev from orthonormality =   9.978858017678505E-013
   GDM::BFGS:   lowest Hinv e-value    9.004317760723603E-002
   GDM::BFGS:   highest Hinv e-value    15.9722387346154     
   GDM::      : max scaling in EWCs is          2.82842712474619     
   GDM::      : max rotation in step is       -0.532018267541446     
   GDM::        grad.step =  -0.617713077107194     
   ------- Leaving GDM -- hopefully with a step in the right direction! --------
 
   36    -791.2425896132      1.07E+00  Gap = 0.00 eV  Descent step
 
   ------------------- Entering Geometric Direct Minimization ------------------
   GDM::trust : actual energy change is       -0.220101721873903     
   GDM::trust : predicted energy change was   -0.459203687933594     
   GDM::trust : updated trust radius is        0.330000000000000     
   GDM:         diagonal hessian shift is      0.000000000000000E+000
   GDM::PreWSS: input subspace size is                 19
   GDM::PreWSS: working subspace size set to           18
   GDM::PrEWSS: # of linearly dependent vectors =            0
   GDM::PrEWSS: Max dev from orthonormality =   1.558940476709125E-012
   GDM::BFGS:   lowest Hinv e-value    0.101332397032730     
   GDM::BFGS:   highest Hinv e-value    18.8250626368304     
   GDM::      : max scaling in EWCs is          2.82842712474619     
   GDM::      : max rotation in step is        0.229398278820023     
   GDM::        grad.step =  -0.473111332856858     
   ------- Leaving GDM -- hopefully with a step in the right direction! --------
 
   37    -791.4626913351      4.28E-01  Gap = 0.00 eV  Descent step
 
   ------------------- Entering Geometric Direct Minimization ------------------
   GDM::trust : actual energy change is       -0.156745369617965     
   GDM::trust : predicted energy change was   -0.452281085443729     
   GDM::trust : updated trust radius is        0.330000000000000     
   GDM:         diagonal hessian shift is      0.000000000000000E+000
   GDM::PreWSS: input subspace size is                 19
   GDM::PreWSS: working subspace size set to           18
   GDM::PrEWSS: # of linearly dependent vectors =            0
   GDM::PrEWSS: Max dev from orthonormality =   5.704811623097328E-013
   GDM::BFGS:   lowest Hinv e-value    0.108057086364507     
   GDM::BFGS:   highest Hinv e-value    16.2907102483452     
   GDM::      : max scaling in EWCs is          2.82842712474619     
   GDM::      : max rotation in step is       -0.381827873895931     
   GDM::        grad.step =  -0.448037113470831     
   ------- Leaving GDM -- hopefully with a step in the right direction! --------
 
   38    -791.6194367047      5.55E-01  Gap = 0.00 eV  Descent step
 
   ------------------- Entering Geometric Direct Minimization ------------------
   GDM::trust : actual energy change is       -0.124769788138792     
   GDM::trust : predicted energy change was   -0.432993451312495     
   GDM::trust : updated trust radius is        0.330000000000000     
   GDM:         diagonal hessian shift is      0.000000000000000E+000
   GDM::PreWSS: input subspace size is                 19
   GDM::PreWSS: working subspace size set to           18
   GDM::PrEWSS: # of linearly dependent vectors =            0
   GDM::PrEWSS: Max dev from orthonormality =   4.089020788633491E-013
   GDM::BFGS:   lowest Hinv e-value    7.750841359895450E-002
   GDM::BFGS:   highest Hinv e-value    19.3542612285222     
   GDM::      : max scaling in EWCs is          2.82842712474619     
   GDM::      : max rotation in step is        0.440035467595768     
   GDM::        grad.step =  -0.561306789557565     
   ------- Leaving GDM -- hopefully with a step in the right direction! --------
 
   39    -791.7442064928      8.02E-01  Gap = 0.00 eV  Descent step
 
   ------------------- Entering Geometric Direct Minimization ------------------
   GDM::trust : actual energy change is       -8.869219749351487E-002
   GDM::trust : predicted energy change was   -0.628356709279642     
   GDM::trust : updated trust radius is        0.330000000000000     
   GDM:         diagonal hessian shift is      0.000000000000000E+000
   GDM::PreWSS: input subspace size is                 19
   GDM::PreWSS: working subspace size set to           18
   GDM::PrEWSS: # of linearly dependent vectors =            0
   GDM::PrEWSS: Max dev from orthonormality =   4.431108258096117E-013
   GDM::BFGS:   lowest Hinv e-value    0.122985194761026     
   GDM::BFGS:   highest Hinv e-value    9.61543318749519     
   GDM::      : max scaling in EWCs is          2.82842712474619     
   GDM::      : max rotation in step is       -0.202368466584991     
   GDM::        grad.step =  -0.516504949768262     
   ------- Leaving GDM -- hopefully with a step in the right direction! --------
 
   40    -791.8328986903      6.81E-01  Gap = -63.90 eV  Descent step
 
   ------------------- Entering Geometric Direct Minimization ------------------
   GDM::trust : actual energy change is       -0.243284497563423     
   GDM::trust : predicted energy change was   -0.377966212775008     
   GDM::trust : updated trust radius is        0.330000000000000     
   GDM:         diagonal hessian shift is      0.000000000000000E+000
   GDM::PreWSS: input subspace size is                 19
   GDM::PreWSS: working subspace size set to           18
   GDM::PrEWSS: # of linearly dependent vectors =            0
   GDM::PrEWSS: Max dev from orthonormality =   3.613637167276806E-013
   GDM::BFGS:   lowest Hinv e-value    0.149284286265523     
   GDM::BFGS:   highest Hinv e-value    10.8298748415947     
   GDM::      : max scaling in EWCs is          2.82842712474619     
   GDM::      : max rotation in step is       -0.376496705054307     
   GDM::        grad.step =  -0.284346624898048     
   ------- Leaving GDM -- hopefully with a step in the right direction! --------
 
   41    -792.0761831879      4.60E-01  Gap = -107.84 eV  Descent step
 
   ------------------- Entering Geometric Direct Minimization ------------------
   GDM::trust : actual energy change is       -0.155774902378198     
   GDM::trust : predicted energy change was   -0.200158772089144     
   GDM::trust : updated trust radius is        0.330000000000000     
   GDM:         diagonal hessian shift is      0.000000000000000E+000
   GDM::PreWSS: input subspace size is                 19
   GDM::PreWSS: working subspace size set to           18
   GDM::PrEWSS: # of linearly dependent vectors =            0
   GDM::PrEWSS: Max dev from orthonormality =   2.753838823643662E-013
   GDM::BFGS:   lowest Hinv e-value    0.128692449204046     
   GDM::BFGS:   highest Hinv e-value    10.3685359092776     
   GDM::      : max scaling in EWCs is          2.82842712474619     
   GDM::      : max rotation in step is       -0.387468957532997     
   GDM::        grad.step =  -0.185519747338686     
   ------- Leaving GDM -- hopefully with a step in the right direction! --------
 
   42    -792.2319580903      2.40E-01  Gap = -107.84 eV  Descent step
 
   ------------------- Entering Geometric Direct Minimization ------------------
   GDM::trust : actual energy change is        7.745991006640907E-002
   GDM::trust : predicted energy change was   -0.365006077428965     
   GDM::trust : updated trust radius is        0.108900000000000     
   GDM::search:  On step            1 .  The current bracket is:
       left   : x =  0.0000E+00, e =      -792.2319580903, g = -0.2897E+00
       current: x =  0.6403E+00, e =      -792.1544981802, g =  0.5275E+00
       right  : x =  0.1000E+04, e =      1000.0000000000, g =  0.1000E+04
       next   : x =  0.2258E+00
   GDM::      : max rotation in step is       -0.136670539106332     
   ------- Leaving GDM -- hopefully with a step in the right direction! --------
 
   43    -792.1544981802      4.81E-02  Gap = -107.84 eV  Line search: overstep
 
   ------------------- Entering Geometric Direct Minimization ------------------
   GDM::trust : actual energy change is       -3.528561224027271E-002
   GDM::trust : predicted energy change was   -0.365006077428965     
   GDM::trust : updated trust radius is        0.108900000000000     
   GDM:         diagonal hessian shift is      0.000000000000000E+000
   GDM::PreWSS: input subspace size is                 19
   GDM::PreWSS: working subspace size set to           18
   GDM::PrEWSS: # of linearly dependent vectors =            0
   GDM::PrEWSS: Max dev from orthonormality =   2.562203921252504E-013
   GDM::BFGS:   lowest Hinv e-value    0.185132510470328     
   GDM::BFGS:   highest Hinv e-value    10.5269579000273     
   GDM::      : max scaling in EWCs is          2.82842712474619     
   GDM::      : max rotation in step is       -7.893205803829736E-002
   GDM::        grad.step =  -3.444440923972707E-002
   ------- Leaving GDM -- hopefully with a step in the right direction! --------
 
   44    -792.2672437025      8.11E-02  Gap = -107.84 eV  Descent step
 
   ------------------- Entering Geometric Direct Minimization ------------------
   GDM::trust : actual energy change is       -2.482837077388922E-002
   GDM::trust : predicted energy change was   -2.242998619795034E-002
   GDM::trust : updated trust radius is        0.330000000000000     
   GDM:         diagonal hessian shift is      0.000000000000000E+000
   GDM::PreWSS: input subspace size is                 19
   GDM::PreWSS: working subspace size set to           18
   GDM::PrEWSS: # of linearly dependent vectors =            0
   GDM::PrEWSS: Max dev from orthonormality =   3.308603391261045E-013
   GDM::BFGS:   lowest Hinv e-value    0.184715391806701     
   GDM::BFGS:   highest Hinv e-value    10.7449905551685     
   GDM::trust : dogleg step length is          0.330000000000000     
   GDM::      : max scaling in EWCs is          2.82842712474619     
   GDM::      : max rotation in step is       -0.543891161385725     
   GDM::        grad.step =  -7.548975187136416E-002
   ------- Leaving GDM -- hopefully with a step in the right direction! --------
 
   45    -792.2920720733      1.41E-01  Gap = -107.84 eV  Dog-leg BFGS step
 
   ------------------- Entering Geometric Direct Minimization ------------------
   GDM::trust : actual energy change is       -1.821292698627985E-002
   GDM::trust : predicted energy change was   -0.112353981631653     
   GDM::trust : updated trust radius is        0.330000000000000     
   GDM:         diagonal hessian shift is      0.000000000000000E+000
   GDM::PreWSS: input subspace size is                 19
   GDM::PreWSS: working subspace size set to           18
   GDM::PrEWSS: # of linearly dependent vectors =            0
   GDM::PrEWSS: Max dev from orthonormality =   1.899348733847006E-013
   GDM::BFGS:   lowest Hinv e-value    0.149710251046862     
   GDM::BFGS:   highest Hinv e-value    7.42597314220034     
   GDM::      : max scaling in EWCs is          2.82842712474619     
   GDM::      : max rotation in step is        0.139603930113146     
   GDM::        grad.step =  -5.443800306777281E-002
   ------- Leaving GDM -- hopefully with a step in the right direction! --------
 
   46    -792.3102850003      1.80E-01  Gap = -107.84 eV  Normal BFGS step
 
   ------------------- Entering Geometric Direct Minimization ------------------
   GDM::trust : actual energy change is        1.085911205109369E-003
   GDM::trust : predicted energy change was   -8.165700460165919E-002
   GDM::trust : updated trust radius is        0.108900000000000     
   GDM::search:  On step            1 .  The current bracket is:
       left   : x =  0.0000E+00, e =      -792.3102850003, g = -0.1770E+00
       current: x =  0.3076E+00, e =      -792.3091990890, g =  0.2037E+00
       right  : x =  0.1000E+04, e =      1000.0000000000, g =  0.1000E+04
       next   : x =  0.1508E+00
   GDM::      : max rotation in step is        6.843681029422932E-002
   ------- Leaving GDM -- hopefully with a step in the right direction! --------
 
   47    -792.3091990890      1.65E-02  Gap = -107.84 eV  Line search: overstep
 
   ------------------- Entering Geometric Direct Minimization ------------------
   GDM::trust : actual energy change is       -1.413443289220595E-002
   GDM::trust : predicted energy change was   -8.165700460165919E-002
   GDM::trust : updated trust radius is        0.108900000000000     
   GDM:         diagonal hessian shift is      0.000000000000000E+000
   GDM::PreWSS: input subspace size is                 19
   GDM::PreWSS: working subspace size set to           18
   GDM::PrEWSS: # of linearly dependent vectors =            0
   GDM::PrEWSS: Max dev from orthonormality =   2.851087421706922E-013
   GDM::BFGS:   lowest Hinv e-value    0.164848097864773     
   GDM::BFGS:   highest Hinv e-value    6.02799260709478     
   GDM::      : max scaling in EWCs is          2.82842712474619     
   GDM::      : max rotation in step is        5.040477866554667E-002
   GDM::        grad.step =  -1.986627024513770E-002
   ------- Leaving GDM -- hopefully with a step in the right direction! --------
 
   48    -792.3244194331      3.88E-02  Gap = -107.84 eV  Descent step
 
   ------------------- Entering Geometric Direct Minimization ------------------
   GDM::trust : actual energy change is        1.316668185381786E-003
   GDM::trust : predicted energy change was   -3.007205399504935E-002
   GDM::trust : updated trust radius is        0.108900000000000     
   GDM::search:  On step            1 .  The current bracket is:
       left   : x =  0.0000E+00, e =      -792.3244194331, g = -0.1332E+00
       current: x =  0.1492E+00, e =      -792.3231027650, g =  0.1526E+00
       right  : x =  0.1000E+04, e =      1000.0000000000, g =  0.1000E+04
       next   : x =  0.6996E-01
   GDM::      : max rotation in step is        2.363588408427301E-002
   ------- Leaving GDM -- hopefully with a step in the right direction! --------
 
   49    -792.3231027650      1.24E-02  Gap = -107.84 eV  Line search: overstep
 
   ------------------- Entering Geometric Direct Minimization ------------------
   GDM::trust : actual energy change is       -4.693337037224410E-003
   GDM::trust : predicted energy change was   -3.007205399504935E-002
   GDM::trust : updated trust radius is        0.108900000000000     
   GDM:         diagonal hessian shift is      0.000000000000000E+000
   GDM::PreWSS: input subspace size is                 19
   GDM::PreWSS: working subspace size set to           18
   GDM::PrEWSS: # of linearly dependent vectors =            0
   GDM::PrEWSS: Max dev from orthonormality =   4.397662789479284E-013
   GDM::BFGS:   lowest Hinv e-value    0.178919871224137     
   GDM::BFGS:   highest Hinv e-value    5.58346331596840     
   GDM::trust : dogleg step length is          0.108900000000000     
   GDM::      : max scaling in EWCs is          2.82842712474619     
   GDM::      : max rotation in step is       -8.215961210562796E-002
   GDM::        grad.step =  -7.557151474271309E-003
   ------- Leaving GDM -- hopefully with a step in the right direction! --------
 
   50    -792.3291127702      5.18E-02  Gap = -107.84 eV  Dog-leg BFGS step
 
   ------------------- Entering Geometric Direct Minimization ------------------
   GDM::trust : actual energy change is       -2.410705595934814E-003
   GDM::trust : predicted energy change was   -1.136321598999075E-002
   GDM::trust : updated trust radius is        0.108900000000000     
   GDM:         diagonal hessian shift is      0.000000000000000E+000
   GDM::PreWSS: input subspace size is                 19
   GDM::PreWSS: working subspace size set to           18
   GDM::PrEWSS: # of linearly dependent vectors =            0
   GDM::PrEWSS: Max dev from orthonormality =   4.677924714258097E-013
   GDM::BFGS:   lowest Hinv e-value    0.192319640565023     
   GDM::BFGS:   highest Hinv e-value    7.06439992743737     
   GDM::trust : dogleg step length is          0.108900000000000     
   GDM::      : max scaling in EWCs is          2.82842712474619     
   GDM::      : max rotation in step is       -0.125229412989681     
   GDM::        grad.step =  -6.619933357134175E-003
   ------- Leaving GDM -- hopefully with a step in the right direction! --------
 
   51    -792.3315234758      4.53E-02  Gap = -107.84 eV  Dog-leg BFGS step
 
   ------------------- Entering Geometric Direct Minimization ------------------
   GDM::trust : actual energy change is       -1.499165666359659E-003
   GDM::trust : predicted energy change was   -1.000235547263827E-002
   GDM::trust : updated trust radius is        0.108900000000000     
   GDM:         diagonal hessian shift is      0.000000000000000E+000
   GDM::PreWSS: input subspace size is                 19
   GDM::PreWSS: working subspace size set to           18
   GDM::PrEWSS: # of linearly dependent vectors =            0
   GDM::PrEWSS: Max dev from orthonormality =   2.272140808834422E-013
   GDM::BFGS:   lowest Hinv e-value    0.199307516073718     
   GDM::BFGS:   highest Hinv e-value    5.04947032105826     
   GDM::      : max scaling in EWCs is          2.82842712474619     
   GDM::      : max rotation in step is       -5.378156632817458E-002
   GDM::        grad.step =  -4.270461581681986E-003
   ------- Leaving GDM -- hopefully with a step in the right direction! --------
 
   52    -792.3330226414      2.02E-02  Gap = -107.84 eV  Normal BFGS step
 
   ------------------- Entering Geometric Direct Minimization ------------------
   GDM::trust : actual energy change is       -1.842817905071570E-003
   GDM::trust : predicted energy change was   -6.405692372522975E-003
   GDM::trust : updated trust radius is        0.330000000000000     
   GDM:         diagonal hessian shift is      0.000000000000000E+000
   GDM::PreWSS: input subspace size is                 19
   GDM::PreWSS: working subspace size set to           18
   GDM::PrEWSS: # of linearly dependent vectors =            0
   GDM::PrEWSS: Max dev from orthonormality =   3.847547280777519E-013
   GDM::BFGS:   lowest Hinv e-value    0.196815779426612     
   GDM::BFGS:   highest Hinv e-value    2.97180700532136     
   GDM::      : max scaling in EWCs is          2.82842712474619     
   GDM::      : max rotation in step is       -4.719016112595715E-002
   GDM::        grad.step =  -2.817188714938958E-003
   ------- Leaving GDM -- hopefully with a step in the right direction! --------
 
   53    -792.3348654593      1.83E-02  Gap = -107.84 eV  Normal BFGS step
 
   ------------------- Entering Geometric Direct Minimization ------------------
   GDM::trust : actual energy change is        1.807084130518888E-003
   GDM::trust : predicted energy change was   -4.225783072408438E-003
   GDM::trust : updated trust radius is        0.108900000000000     
   GDM::search:  On step            1 .  The current bracket is:
       left   : x =  0.0000E+00, e =      -792.3348654593, g = -0.3025E-01
       current: x =  0.9313E-01, e =      -792.3330583752, g =  0.6922E-01
       right  : x =  0.1000E+04, e =      1000.0000000000, g =  0.1000E+04
       next   : x =  0.2837E-01
   GDM::      : max rotation in step is       -1.437453993559013E-002
   ------- Leaving GDM -- hopefully with a step in the right direction! --------
 
   54    -792.3330583752      2.25E-02  Gap = 0.00 eV  Line search: overstep
 
   ------------------- Entering Geometric Direct Minimization ------------------
   GDM::trust : actual energy change is       -4.302247443774831E-004
   GDM::trust : predicted energy change was   -4.225783072408438E-003
   GDM::trust : updated trust radius is        0.108900000000000     
   GDM:         diagonal hessian shift is      0.000000000000000E+000
   GDM::PreWSS: input subspace size is                 19
   GDM::PreWSS: working subspace size set to           18
   GDM::PrEWSS: # of linearly dependent vectors =            0
   GDM::PrEWSS: Max dev from orthonormality =   2.121705588997713E-013
   GDM::BFGS:   lowest Hinv e-value    0.197959631663663     
   GDM::BFGS:   highest Hinv e-value    3.04765089032886     
   GDM::      : max scaling in EWCs is          2.82842712474619     
   GDM::      : max rotation in step is       -3.527639712622021E-002
   GDM::        grad.step =  -6.153922593516048E-004
   ------- Leaving GDM -- hopefully with a step in the right direction! --------
 
   55    -792.3352956841      1.04E-02  Gap = 0.00 eV  Normal BFGS step
 
   ------------------- Entering Geometric Direct Minimization ------------------
   GDM::trust : actual energy change is       -2.771189964505538E-004
   GDM::trust : predicted energy change was   -9.230883890274069E-004
   GDM::trust : updated trust radius is        0.330000000000000     
   GDM:         diagonal hessian shift is      0.000000000000000E+000
   GDM::PreWSS: input subspace size is                 19
   GDM::PreWSS: working subspace size set to           18
   GDM::PrEWSS: # of linearly dependent vectors =            0
   GDM::PrEWSS: Max dev from orthonormality =   1.674181626665217E-013
   GDM::BFGS:   lowest Hinv e-value    0.198285726353215     
   GDM::BFGS:   highest Hinv e-value    3.54295428054298     
   GDM::      : max scaling in EWCs is          2.82842712474619     
   GDM::      : max rotation in step is       -2.806291588091679E-002
   GDM::        grad.step =  -2.215586250321053E-004
   ------- Leaving GDM -- hopefully with a step in the right direction! --------
 
   56    -792.3355728031      4.62E-03  Gap = 0.00 eV  Normal BFGS step
 
   ------------------- Entering Geometric Direct Minimization ------------------
   GDM::trust : actual energy change is        2.606740542887565E-005
   GDM::trust : predicted energy change was   -3.323379375481579E-004
   GDM::trust : updated trust radius is        0.108900000000000     
   GDM::search:  On step            1 .  The current bracket is:
       left   : x =  0.0000E+00, e =      -792.3355728031, g = -0.6082E-02
       current: x =  0.3643E-01, e =      -792.3355467357, g =  0.7541E-02
       right  : x =  0.1000E+04, e =      1000.0000000000, g =  0.1000E+04
       next   : x =  0.1630E-01
   GDM::      : max rotation in step is       -1.255437694775646E-002
   ------- Leaving GDM -- hopefully with a step in the right direction! --------
 
   57    -792.3355467357      1.50E-02  Gap = 0.00 eV  Line search: overstep
 
   ------------------- Entering Geometric Direct Minimization ------------------
   GDM::trust : actual energy change is       -4.967305608261086E-005
   GDM::trust : predicted energy change was   -3.323379375481579E-004
   GDM::trust : updated trust radius is        0.108900000000000     
   GDM:         diagonal hessian shift is      0.000000000000000E+000
   GDM::PreWSS: input subspace size is                 19
   GDM::PreWSS: working subspace size set to           18
   GDM::PrEWSS: # of linearly dependent vectors =            0
   GDM::PrEWSS: Max dev from orthonormality =   3.137282100773575E-013
   GDM::BFGS:   lowest Hinv e-value    0.194815698037141     
   GDM::BFGS:   highest Hinv e-value    3.93310674010553     
   GDM::      : max scaling in EWCs is          2.82842712474619     
   GDM::      : max rotation in step is       -2.551381674306705E-002
   GDM::        grad.step =  -1.348703085389262E-004
   ------- Leaving GDM -- hopefully with a step in the right direction! --------
 
   58    -792.3356224761      2.94E-03  Gap = 0.00 eV  Normal BFGS step
 
   ------------------- Entering Geometric Direct Minimization ------------------
   GDM::trust : actual energy change is       -2.209350259363418E-005
   GDM::trust : predicted energy change was   -2.023054628083892E-004
   GDM::trust : updated trust radius is        0.330000000000000     
   GDM:         diagonal hessian shift is      0.000000000000000E+000
   GDM::PreWSS: input subspace size is                 19
   GDM::PreWSS: working subspace size set to           18
   GDM::PrEWSS: # of linearly dependent vectors =            0
   GDM::PrEWSS: Max dev from orthonormality =   4.436589984280204E-013
   GDM::BFGS:   lowest Hinv e-value    0.195348086839377     
   GDM::BFGS:   highest Hinv e-value    3.84617955357026     
   GDM::      : max scaling in EWCs is          2.82842712474619     
   GDM::      : max rotation in step is       -1.932532342120502E-003
   GDM::        grad.step =  -8.162113674670475E-005
   ------- Leaving GDM -- hopefully with a step in the right direction! --------
 
   59    -792.3356445696      2.28E-03  Gap = 0.00 eV  Normal BFGS step
 
   ------------------- Entering Geometric Direct Minimization ------------------
   GDM::trust : actual energy change is       -3.064025202093035E-005
   GDM::trust : predicted energy change was   -1.224317051200571E-004
   GDM::trust : updated trust radius is        0.330000000000000     
   GDM:         diagonal hessian shift is      0.000000000000000E+000
   GDM::PreWSS: input subspace size is                 19
   GDM::PreWSS: working subspace size set to           18
   GDM::PrEWSS: # of linearly dependent vectors =            0
   GDM::PrEWSS: Max dev from orthonormality =   2.525462478031315E-013
   GDM::BFGS:   lowest Hinv e-value    0.194170022819130     
   GDM::BFGS:   highest Hinv e-value    3.84410437401884     
   GDM::      : max scaling in EWCs is          2.82842712474619     
   GDM::      : max rotation in step is       -2.315601591126944E-003
   GDM::        grad.step =  -2.364299786111905E-005
   ------- Leaving GDM -- hopefully with a step in the right direction! --------
 
   60    -792.3356752099      1.74E-03  Gap = 0.00 eV  Normal BFGS step
 
   ------------------- Entering Geometric Direct Minimization ------------------
   GDM::trust : actual energy change is       -5.791584271719330E-006
   GDM::trust : predicted energy change was   -3.546449679167858E-005
   GDM::trust : updated trust radius is        0.330000000000000     
   GDM:         diagonal hessian shift is      0.000000000000000E+000
   GDM::PreWSS: input subspace size is                 19
   GDM::PreWSS: working subspace size set to           18
   GDM::PrEWSS: # of linearly dependent vectors =            0
   GDM::PrEWSS: Max dev from orthonormality =   2.278142952061302E-013
   GDM::BFGS:   lowest Hinv e-value    0.194796951739930     
   GDM::BFGS:   highest Hinv e-value    3.73229281353091     
   GDM::      : max scaling in EWCs is          2.82842712474619     
   GDM::      : max rotation in step is       -3.363496213582900E-003
   GDM::        grad.step =  -7.605916830774913E-006
   ------- Leaving GDM -- hopefully with a step in the right direction! --------
 
   61    -792.3356810015      9.21E-04  Gap = 0.00 eV  Normal BFGS step
 
   ------------------- Entering Geometric Direct Minimization ------------------
   GDM::trust : actual energy change is       -3.758660682251502E-006
   GDM::trust : predicted energy change was   -1.140887524616237E-005
   GDM::trust : updated trust radius is        0.330000000000000     
   GDM:         diagonal hessian shift is      0.000000000000000E+000
   GDM::PreWSS: input subspace size is                 19
   GDM::PreWSS: working subspace size set to           18
   GDM::PrEWSS: # of linearly dependent vectors =            0
   GDM::PrEWSS: Max dev from orthonormality =   5.607320163747431E-013
   GDM::BFGS:   lowest Hinv e-value    0.194870866688962     
   GDM::BFGS:   highest Hinv e-value    3.79983499119246     
   GDM::      : max scaling in EWCs is          2.82842712474619     
   GDM::      : max rotation in step is       -8.509375382579031E-004
   GDM::        grad.step =  -6.890902597016133E-007
   ------- Leaving GDM -- hopefully with a step in the right direction! --------
 
   62    -792.3356847601      2.26E-04  Gap = 0.00 eV  Normal BFGS step
 
   ------------------- Entering Geometric Direct Minimization ------------------
   GDM::trust : actual energy change is       -3.250120244047139E-007
   GDM::trust : predicted energy change was   -1.033635389552420E-006
   GDM::trust : updated trust radius is        0.330000000000000     
   GDM:         diagonal hessian shift is      0.000000000000000E+000
   GDM::PreWSS: input subspace size is                 19
   GDM::PreWSS: working subspace size set to           18
   GDM::PrEWSS: # of linearly dependent vectors =            0
   GDM::PrEWSS: Max dev from orthonormality =   1.175684549714617E-012
   GDM::BFGS:   lowest Hinv e-value    0.194735438703754     
   GDM::BFGS:   highest Hinv e-value    3.94161937650094     
   GDM::      : max scaling in EWCs is          2.82842712474619     
   GDM::      : max rotation in step is       -6.806036551458816E-004
   GDM::        grad.step =  -2.820375939614949E-007
   ------- Leaving GDM -- hopefully with a step in the right direction! --------
 
   63    -792.3356850852      1.25E-04  Gap = 0.00 eV  Normal BFGS step
 
   ------------------- Entering Geometric Direct Minimization ------------------
   GDM::trust : actual energy change is       -4.613389137375634E-008
   GDM::trust : predicted energy change was   -4.230563909422424E-007
   GDM::trust : updated trust radius is        0.330000000000000     
   GDM:         diagonal hessian shift is      0.000000000000000E+000
   GDM::PreWSS: input subspace size is                 19
   GDM::PreWSS: working subspace size set to           18
   GDM::PrEWSS: # of linearly dependent vectors =            0
   GDM::PrEWSS: Max dev from orthonormality =   5.552676374254162E-013
   GDM::BFGS:   lowest Hinv e-value    0.194791141113336     
   GDM::BFGS:   highest Hinv e-value    4.00404028719069     
   GDM::      : max scaling in EWCs is          2.82842712474619     
   GDM::      : max rotation in step is       -1.166868165506309E-004
   GDM::        grad.step =  -1.499285033749336E-007
   ------- Leaving GDM -- hopefully with a step in the right direction! --------
 
   64    -792.3356851313      9.11E-05  Gap = 0.00 eV  Normal BFGS step
 
   ------------------- Entering Geometric Direct Minimization ------------------
   GDM::trust : actual energy change is       -6.199195468070684E-008
   GDM::trust : predicted energy change was   -2.248927550624004E-007
   GDM::trust : updated trust radius is        0.330000000000000     
   GDM:         diagonal hessian shift is      0.000000000000000E+000
   GDM::PreWSS: input subspace size is                 19
   GDM::PreWSS: working subspace size set to           18
   GDM::PrEWSS: # of linearly dependent vectors =            0
   GDM::PrEWSS: Max dev from orthonormality =   1.303217950221480E-012
   GDM::BFGS:   lowest Hinv e-value    0.191136730606182     
   GDM::BFGS:   highest Hinv e-value    3.98417795357841     
   GDM::      : max scaling in EWCs is          2.82842712474619     
   GDM::      : max rotation in step is        1.560482086422643E-004
   GDM::        grad.step =  -2.023563194429496E-008
   ------- Leaving GDM -- hopefully with a step in the right direction! --------
 
   65    -792.3356851933      3.62E-05  Gap = 0.00 eV  Normal BFGS step
 
   ------------------- Entering Geometric Direct Minimization ------------------
   GDM::trust : actual energy change is       -8.421920938417315E-009
   GDM::trust : predicted energy change was   -3.035344791644244E-008
   GDM::trust : updated trust radius is        0.330000000000000     
   GDM:         diagonal hessian shift is      0.000000000000000E+000
   GDM::PreWSS: input subspace size is                 19
   GDM::PreWSS: working subspace size set to           18
   GDM::PrEWSS: # of linearly dependent vectors =            0
   GDM::PrEWSS: Max dev from orthonormality =   1.014771600083009E-012
   GDM::BFGS:   lowest Hinv e-value    0.189290958388451     
   GDM::BFGS:   highest Hinv e-value    3.84208113918782     
   GDM::      : max scaling in EWCs is          2.82842712474619     
   GDM::      : max rotation in step is       -7.511742202243552E-005
   GDM::        grad.step =  -3.794322860327426E-009
   ------- Leaving GDM -- hopefully with a step in the right direction! --------
 
   66    -792.3356852017      2.48E-05  Gap = 0.00 eV  Normal BFGS step
 
   ------------------- Entering Geometric Direct Minimization ------------------
   GDM::trust : actual energy change is       -2.655951902852394E-009
   GDM::trust : predicted energy change was   -5.691484290491139E-009
   GDM::trust : updated trust radius is        0.330000000000000     
   GDM:         diagonal hessian shift is      0.000000000000000E+000
   GDM::PreWSS: input subspace size is                 19
   GDM::PreWSS: working subspace size set to           18
   GDM::PrEWSS: # of linearly dependent vectors =            0
   GDM::PrEWSS: Max dev from orthonormality =   3.088973521414573E-012
[...]
   GDM::trust : actual energy change is        0.000000000000000E+000
   GDM::trust : predicted energy change was   -2.822902130887252E-013
   GDM::trust : updated trust radius is        0.330000000000000     
   GDM:         diagonal hessian shift is      0.000000000000000E+000
   GDM::PreWSS: input subspace size is                 19
   GDM::PreWSS: working subspace size set to           18
   GDM::PrEWSS: # of linearly dependent vectors =           13
   GDM::PrEWSS: Max dev from orthonormality =   4.141830975412653E-012
   GDM::BFGS:   lowest Hinv e-value    0.212895509934853     
   GDM::BFGS:   highest Hinv e-value    24.7426339868674     
   GDM::      : max scaling in EWCs is          2.68038509842801     
   GDM::      : max rotation in step is       -5.997708397013434E-007
   GDM::        grad.step =  -2.091487095938468E-013
   ------- Leaving GDM -- hopefully with a step in the right direction! --------
 
   25    -792.4432193338      2.24E-07  Gap = -107.37 eV  Normal BFGS step
 
   ------------------- Entering Geometric Direct Minimization ------------------
   GDM::trust : actual energy change is        1.591615728102624E-012
   GDM::trust : predicted energy change was   -3.137230643907703E-013
   GDM::trust : updated trust radius is        0.108900000000000     
   GDM::WARNING energy changes are now smaller than effective accuracy.
   GDM::        calculation will continue, but THRESH should be increased
   GDM::        or SCF_CONVERGENCE decreased.
   GDM::        effective_thresh =   3.700000000000000E-010
   GDM:         diagonal hessian shift is      0.000000000000000E+000
   GDM::PreWSS: input subspace size is                 19
   GDM::PreWSS: working subspace size set to           18
   GDM::PrEWSS: # of linearly dependent vectors =           12
   GDM::PrEWSS: Max dev from orthonormality =   4.451990859299926E-012
   GDM::BFGS:   lowest Hinv e-value    0.210267344146924     
   GDM::BFGS:   highest Hinv e-value    24.6174192132333     
   GDM::      : max scaling in EWCs is          2.68038475804170     
   GDM::      : max rotation in step is        3.905019071291468E-007
   GDM::        grad.step =  -1.327316406102359E-013
   ------- Leaving GDM -- hopefully with a step in the right direction! --------
 
   26    -792.4432193338      1.62E-07  Gap = -107.37 eV  Normal BFGS step
 
   ------------------- Entering Geometric Direct Minimization ------------------
   GDM::trust : actual energy change is       -1.023181539494544E-012
   GDM::trust : predicted energy change was   -1.990974609153537E-013
   GDM::trust : updated trust radius is        0.330000000000000     
   GDM:         diagonal hessian shift is      0.000000000000000E+000
   GDM::PreWSS: input subspace size is                 19
   GDM::PreWSS: working subspace size set to           18
   GDM::PrEWSS: # of linearly dependent vectors =           11
   GDM::PrEWSS: Max dev from orthonormality =   6.799539577218017E-011
   GDM::BFGS:   lowest Hinv e-value    0.220051582428297     
   GDM::BFGS:   highest Hinv e-value    24.6483356731337     
   GDM::      : max scaling in EWCs is          2.68038480694949     
   GDM::      : max rotation in step is        1.152902200738689E-007
   GDM::        grad.step =  -3.281300477161542E-014
   ------- Leaving GDM -- hopefully with a step in the right direction! --------
 
   27    -792.4432193338      3.83E-08  Gap = -107.37 eV  Normal BFGS step
 
   ------------------- Entering Geometric Direct Minimization ------------------
   GDM::trust : actual energy change is        2.160049916710705E-012
   GDM::trust : predicted energy change was   -4.921950715742314E-014
   GDM::trust : updated trust radius is        0.108900000000000     
   GDM::WARNING energy changes are now smaller than effective accuracy.
   GDM::        calculation will continue, but THRESH should be increased
   GDM::        or SCF_CONVERGENCE decreased.
   GDM::        effective_thresh =   3.700000000000000E-010
   GDM:         diagonal hessian shift is      0.000000000000000E+000
   GDM::PreWSS: input subspace size is                 19
   GDM::PreWSS: working subspace size set to           18
   GDM::PrEWSS: # of linearly dependent vectors =           11
   GDM::PrEWSS: Max dev from orthonormality =   3.856649635064491E-011
   GDM::BFGS:   lowest Hinv e-value    0.233197520541351     
   GDM::BFGS:   highest Hinv e-value    24.5490907763275     
   GDM::      : max scaling in EWCs is          2.68038511795933     
   GDM::      : max rotation in step is       -1.231000227420007E-007
   GDM::        grad.step =  -5.390567980056197E-014
   ------- Leaving GDM -- hopefully with a step in the right direction! --------
 
   28    -792.4432193338      8.74E-08  Gap = -107.37 eV  Normal BFGS step
 
   ------------------- Entering Geometric Direct Minimization ------------------
   GDM::trust : actual energy change is        1.477928890381008E-012
   GDM::trust : predicted energy change was   -8.085851970084294E-014
   GDM::trust : updated trust radius is        0.108900000000000     
   GDM::WARNING energy changes are now smaller than effective accuracy.
   GDM::        calculation will continue, but THRESH should be increased
   GDM::        or SCF_CONVERGENCE decreased.
   GDM::        effective_thresh =   3.700000000000000E-010
   GDM:         diagonal hessian shift is      0.000000000000000E+000
   GDM::PreWSS: input subspace size is                 19
   GDM::PreWSS: working subspace size set to           18
   GDM::PrEWSS: # of linearly dependent vectors =           10
   GDM::PrEWSS: Max dev from orthonormality =   3.179355043125831E-011
   GDM::BFGS:   lowest Hinv e-value    0.230646604244422     
   GDM::BFGS:   highest Hinv e-value    24.4808630847848     
   GDM::      : max scaling in EWCs is          2.68038488741906     
   GDM::      : max rotation in step is       -3.842123039165521E-008
   GDM::        grad.step =  -1.175996892659060E-015
   ------- Leaving GDM -- hopefully with a step in the right direction! --------
 
   29    -792.4432193338      9.03E-09 Convergence criterion met
 ---------------------------------------
 One-Electron    Energy = -1915.6129657011
 Total Coulomb   Energy =   796.2549195762
 Alpha Exchange  Energy =    -6.9780023195
 Beta  Exchange  Energy =    -6.7147067303
 DFT   Exchange  Energy =   -54.7376023293
 DFT Correlation Energy =    -3.2933803234
 Nuclear Repu.   Energy =   398.6385184935
 Nuclear Attr.   Energy = -2658.9701448328
 Kinetic         Energy =   743.3571791317
 <S^2> = 2.0269
 SCF time:  CPU 212.67 s  wall 18.70 s
 SCF   energy in the final basis set = -792.4432193338
 Total energy in the final basis set = -792.4432193338
 
 --------------------------------------------------------------
 
                    Orbital Energies (a.u.)
 --------------------------------------------------------------
 
 Alpha MOs
 -- Occupied --
-88.879 -19.214 -19.201 -19.177 -19.133  -7.954  -5.925  -5.910
 -5.909  -2.099  -2.084  -1.325  -1.307  -1.302  -1.293  -1.284
 -1.282  -0.959  -0.947  -0.925  -0.856  -0.699  -0.451  -0.418
 -0.410  -0.406  -0.401  -0.386  -0.374  -0.363  -0.344  -0.324
 -0.321  -0.317  -0.313  -0.303  -0.284
 -- Virtual --
 -0.117  -0.104  -0.090  -0.081  -0.076  -0.051  -0.038  -0.034
 -0.014  -0.002   0.006   0.012   0.020   0.031   0.035   0.043
  0.046   0.087   0.091   0.094   0.097   0.108   0.127   0.138
  0.151   0.157   0.160   0.169   0.193   0.200   0.201   0.208
  0.217   0.218   0.220   0.229   0.233   0.262   0.269   0.270
  0.272   0.281   0.319   0.326   0.334   0.350   0.358   0.400
  0.423   0.436   0.516   0.526   0.542   0.565   0.585   0.644
  0.706   0.767   0.787   0.820   0.851   0.878   0.934   1.020
  1.134   1.167   1.184   1.189   1.201   1.230   1.236   1.254
  1.275   1.288   1.307   1.636   1.651   1.707   1.723   1.727
  1.738   1.746   1.752   1.774   1.787   1.790   1.812   1.819
  1.823   1.827   1.850   1.856   1.877   1.883   1.926   1.934
  1.948   2.077   2.142  12.698  16.126
 
 Beta MOs
 -- Occupied --
-88.874 -19.195 -19.191 -19.176 -19.133  -7.949  -5.909  -5.907
 -5.906  -2.101  -2.085  -1.326  -1.309  -1.305  -1.294  -1.285
 -1.283  -0.925  -0.921  -0.900  -0.854  -0.655  -0.414  -0.403
 -0.399  -0.394  -0.383  -0.370  -0.351  -0.342  -0.318  -0.316
 -0.308  -0.291  -0.269
 -- Virtual --
 -0.200  -0.195  -0.116  -0.104  -0.091  -0.076  -0.073  -0.048
 -0.034  -0.026  -0.013   0.001   0.007   0.014   0.022   0.032
  0.036   0.043   0.048   0.088   0.095   0.097   0.099   0.111
  0.130   0.140   0.153   0.161   0.164   0.172   0.194   0.201
  0.203   0.210   0.218   0.220   0.224   0.233   0.236   0.265
  0.270   0.271   0.275   0.283   0.321   0.329   0.337   0.353
  0.360   0.403   0.426   0.438   0.530   0.548   0.550   0.571
  0.590   0.660   0.722   0.815   0.824   0.836   0.877   0.895
  0.946   1.060   1.139   1.181   1.189   1.202   1.205   1.234
  1.243   1.258   1.280   1.298   1.332   1.644   1.664   1.713
  1.739   1.744   1.755   1.763   1.769   1.795   1.799   1.811
  1.822   1.826   1.831   1.855   1.855   1.859   1.883   1.893
  1.937   1.948   1.974   2.087   2.144  12.699  16.127
 --------------------------------------------------------------
 
          Ground-State Mulliken Net Atomic Charges

     Atom                 Charge (a.u.)    Spin (a.u.)
  --------------------------------------------------------
      1 Zr                    1.379346      -0.115369
      2 Zr                    1.666525      -0.043520
      3 O                    -0.875307       0.362271
      4 O                    -0.938519       0.044072
      5 O                    -0.583598       0.749822
      6 O                    -0.556414       0.011928
      7 S                    -0.092032       0.990794
  --------------------------------------------------------
  Sum of atomic charges =     0.000000
  Sum of spin   charges =     2.000000

 -----------------------------------------------------------------
                    Cartesian Multipole Moments
 -----------------------------------------------------------------
    Charge (ESU x 10^10)
                 0.0000
    Dipole Moment (Debye)
         X      -1.8722      Y       1.8250      Z       2.0806
       Tot       3.3414
    Quadrupole Moments (Debye-Ang)
        XX     -82.9530     XY      -8.5049     YY     -88.3204
        XZ     -10.3912     YZ      -6.2680     ZZ     -87.0260
    Octopole Moments (Debye-Ang^2)
       XXX     -91.9828    XXY      20.9590    XYY       7.7581
       YYY      15.9093    XXZ      -4.6786    XYZ      13.7463
       YYZ      -8.9360    XZZ      -5.0822    YZZ       8.2064
       ZZZ     -19.6049
    Hexadecapole Moments (Debye-Ang^3)
      XXXX   -1914.5406   XXXY    -267.5224   XXYY    -372.0096
      XYYY    -192.6314   YYYY    -403.1045   XXXZ    -458.1746
      XXYZ     -97.4133   XYYZ    -127.9218   YYYZ     -97.8360
      XXZZ    -435.0456   XYZZ    -101.8285   YYZZ    -166.7728
      XZZZ    -357.9334   YZZZ    -102.6416   ZZZZ    -520.2243
 -----------------------------------------------------------------
 Calculating analytic gradient of the SCF energy
 Gradient of SCF Energy
            1           2           3           4           5           6
    1   0.0001128  -0.0001247  -0.0000287   0.0000135   0.0000448  -0.0000090
    2   0.0000491  -0.0000592  -0.0000551  -0.0000287   0.0000486   0.0000197
    3   0.0001356  -0.0001141   0.0000177  -0.0000274  -0.0000150  -0.0000205
            7
    1  -0.0000086
    2   0.0000256
    3   0.0000237
 Max gradient component =       1.356E-04
 RMS gradient           =       6.107E-05
 Gradient time:  CPU 28.25 s  wall 4.06 s
 Geometry Optimization Parameters
   NAtoms,    NIC,     NZ,  NCons,   NDum,   NFix, NCnnct, MaxDiis
        7      77       0       0       0       0       0       0

 Cartesian Hessian Update
 Hessian Updated using BFGS Update


** GEOMETRY OPTIMIZATION IN CARTESIAN COORDINATES **
   Searching for a Minimum

   Optimization Cycle:  78

                       Coordinates (Angstroms)
     ATOM                X               Y               Z
      1  Zr        0.9508367383    0.1988192341    0.4952184054
      2  Zr       -1.6819228623   -0.4079038836   -0.4734993773
      3  O         0.0562693684    0.4367746428   -1.2643282259
      4  O        -0.2778486035   -1.2932325668    0.7426816582
      5  O        -0.5822780878    1.4672947144    0.7904949484
      6  O        -2.5584086241   -1.4788615955   -1.5924813978
      7  S         3.3385520710    0.4860094547    1.3098239889
   Point Group: c1    Number of degrees of freedom:    15


   Energy is   -792.443219334


 Translations and Rotations Projected Out of Hessian

 15 Hessian modes will be used to form the next step
  Hessian Eigenvalues:
     0.001988    0.004769    0.012410    0.015807    0.039179    0.066211
     0.090270    0.132307    0.173285    0.199827    0.247298    0.378268
     0.524322    0.729520    1.286235

 Minimum Search - Taking Simple RFO Step
 Searching for Lamda that Minimizes Along All modes
 Value Taken    Lamda =   0.00000000
 Step Taken.  Stepsize is  0.005469

                             Maximum     Tolerance    Cnvgd?
         Gradient           0.000136      0.000300     YES
         Displacement       0.003146      0.001200      NO
         Energy change     -0.000001      0.000001     YES


                       Distance Matrix (Angstroms)
             Zr(  1)   Zr(  2)   O (  3)   O (  4)   O (  5)   O (  6)
   Zr(  2)  2.870183
   O (  3)  1.988185  2.088110
   O (  4)  1.948621  2.057748  2.670702
   O (  5)  2.011631  2.514611  2.385794  2.777674
   O (  6)  4.414511  1.779691  3.257896  3.269312  4.273582
   S (  7)  2.539143  5.402267  4.171578  4.070099  4.074989  6.859901

 
 Final energy is   -792.443219333844     


 ******************************
 **  OPTIMIZATION CONVERGED  **
 ******************************

                       Coordinates (Angstroms)
     ATOM                X               Y               Z
      1  Zr        0.9508367383    0.1988192341    0.4952184054
      2  Zr       -1.6819228623   -0.4079038836   -0.4734993773
      3  O         0.0562693684    0.4367746428   -1.2643282259
      4  O        -0.2778486035   -1.2932325668    0.7426816582
      5  O        -0.5822780878    1.4672947144    0.7904949484
      6  O        -2.5584086241   -1.4788615955   -1.5924813978
      7  S         3.3385520710    0.4860094547    1.3098239889

Z-matrix Print:
$molecule
0 3
Zr
O  1 1.948621
O  1 1.988185 2 85.430137
O  1 2.011631 2 89.062234 3 -73.254113 0
Zr 2 2.057748 1 91.475493 3 28.041315 0
O  5 1.779691 2 116.663411 1 -139.558010 0
S  1 2.539143 2 129.702348 3 146.917991 0
$end

 
 --------------------------------------------------------------
 
                    Orbital Energies (a.u.)
 --------------------------------------------------------------
 
 Alpha MOs
 -- Occupied --
-88.879 -19.214 -19.201 -19.177 -19.133  -7.954  -5.925  -5.910
 -5.909  -2.099  -2.084  -1.325  -1.307  -1.302  -1.293  -1.284
 -1.282  -0.959  -0.947  -0.925  -0.856  -0.699  -0.451  -0.418
 -0.410  -0.406  -0.401  -0.386  -0.374  -0.363  -0.344  -0.324
 -0.321  -0.317  -0.313  -0.303  -0.284
 -- Virtual --
 -0.117  -0.104  -0.090  -0.081  -0.076  -0.051  -0.038  -0.034
 -0.014  -0.002   0.006   0.012   0.020   0.031   0.035   0.043
  0.046   0.087   0.091   0.094   0.097   0.108   0.127   0.138
  0.151   0.157   0.160   0.169   0.193   0.200   0.201   0.208
  0.217   0.218   0.220   0.229   0.233   0.262   0.269   0.270
  0.272   0.281   0.319   0.326   0.334   0.350   0.358   0.400
  0.423   0.436   0.516   0.526   0.542   0.565   0.585   0.644
  0.706   0.767   0.787   0.820   0.851   0.878   0.934   1.020
  1.134   1.167   1.184   1.189   1.201   1.230   1.236   1.254
  1.275   1.288   1.307   1.636   1.651   1.707   1.723   1.727
  1.738   1.746   1.752   1.774   1.787   1.790   1.812   1.819
  1.823   1.827   1.850   1.856   1.877   1.883   1.926   1.934
  1.948   2.077   2.142  12.698  16.126
 
 Beta MOs
 -- Occupied --
-88.874 -19.195 -19.191 -19.176 -19.133  -7.949  -5.909  -5.907
 -5.906  -2.101  -2.085  -1.326  -1.309  -1.305  -1.294  -1.285
 -1.283  -0.925  -0.921  -0.900  -0.854  -0.655  -0.414  -0.403
 -0.399  -0.394  -0.383  -0.370  -0.351  -0.342  -0.318  -0.316
 -0.308  -0.291  -0.269
 -- Virtual --
 -0.200  -0.195  -0.116  -0.104  -0.091  -0.076  -0.073  -0.048
 -0.034  -0.026  -0.013   0.001   0.007   0.014   0.022   0.032
  0.036   0.043   0.048   0.088   0.095   0.097   0.099   0.111
  0.130   0.140   0.153   0.161   0.164   0.172   0.194   0.201
  0.203   0.210   0.218   0.220   0.224   0.233   0.236   0.265
  0.270   0.271   0.275   0.283   0.321   0.329   0.337   0.353
  0.360   0.403   0.426   0.438   0.530   0.548   0.550   0.571
  0.590   0.660   0.722   0.815   0.824   0.836   0.877   0.895
  0.946   1.060   1.139   1.181   1.189   1.202   1.205   1.234
  1.243   1.258   1.280   1.298   1.332   1.644   1.664   1.713
  1.739   1.744   1.755   1.763   1.769   1.795   1.799   1.811
  1.822   1.826   1.831   1.855   1.855   1.859   1.883   1.893
  1.937   1.948   1.974   2.087   2.144  12.699  16.127
 --------------------------------------------------------------
 
          Ground-State Mulliken Net Atomic Charges

     Atom                 Charge (a.u.)    Spin (a.u.)
  --------------------------------------------------------
      1 Zr                    1.379346      -0.115369
      2 Zr                    1.666525      -0.043520
      3 O                    -0.875307       0.362271
      4 O                    -0.938519       0.044072
      5 O                    -0.583598       0.749822
      6 O                    -0.556414       0.011928
      7 S                    -0.092032       0.990794
  --------------------------------------------------------
  Sum of atomic charges =     0.000000
  Sum of spin   charges =     2.000000

 -----------------------------------------------------------------
                    Cartesian Multipole Moments
 -----------------------------------------------------------------
    Charge (ESU x 10^10)
                 0.0000
    Dipole Moment (Debye)
         X      -1.8722      Y       1.8250      Z       2.0806
       Tot       3.3414
    Quadrupole Moments (Debye-Ang)
        XX     -82.9530     XY      -8.5049     YY     -88.3204
        XZ     -10.3912     YZ      -6.2680     ZZ     -87.0260
    Octopole Moments (Debye-Ang^2)
       XXX     -91.9828    XXY      20.9590    XYY       7.7581
       YYY      15.9093    XXZ      -4.6786    XYZ      13.7463
       YYZ      -8.9360    XZZ      -5.0822    YZZ       8.2064
       ZZZ     -19.6049
    Hexadecapole Moments (Debye-Ang^3)
      XXXX   -1914.5406   XXXY    -267.5224   XXYY    -372.0096
      XYYY    -192.6314   YYYY    -403.1045   XXXZ    -458.1746
      XXYZ     -97.4133   XYYZ    -127.9218   YYYZ     -97.8360
      XXZZ    -435.0456   XYZZ    -101.8285   YYZZ    -166.7728
      XZZZ    -357.9334   YZZZ    -102.6416   ZZZZ    -520.2243
 -----------------------------------------------------------------
Archival summary:
1\1\hpc3450\OPT\ProcedureUnspecified\BasisUnspecified\r214(+,3)\liqiuy\FriJan1720:08:302020FriJan1720:08:302020\0\\#,OPT,ProcedureUnspecified,BasisUnspecified,\\56,3\Zr\O,1,1.94862\O,1,1.98818,2,85.4301\O,1,2.01163,2,89.0622,3,-73.2541,0\Zr,2,2.05775,1,91.4755,3,28.0413,0\O,5,1.77969,2,116.663,1,-139.558,0\S,1,2.53914,2,129.702,3,146.918,0\\\@

 Total job time:  2330.00s(wall), 22835.52s(cpu) 
 Fri Jan 17 20:08:30 2020

        *************************************************************
        *                                                           *
        *  Thank you very much for using Q-Chem.  Have a nice day.  *
        *                                                           *
        *************************************************************


0 sent ACK to 0 
now end server 0 ... 
cleanup process ... done
