
Running Job 1 of 2 ZrOx.in
qchem ZrOx.in_26502.0 /tmp/5732633.priya/ZrOx.save/ 1
/usr/usc/qchem/4.4/bin/mpi/mpirun_qchem -machinefile /usr/usc/qchem/4.4/bin/mpi/machines -np 1 /usr/usc/qchem/4.4/exe/qcprog.exe ZrOx.in_26502.0 /tmp/5732633.priya/ZrOx.save/

Process 0 of 1 is on hpc3919.hpcc.usc.edu - thread support 0
initial socket setup ...start
initial socket setup ...done 
now start server 0 ... 
Check license passed

                  Welcome to Q-Chem
     A Quantum Leap Into The Future Of Chemistry


 Q-Chem 4.4, Q-Chem, Inc., Pleasanton, CA (2016)

 Y. Shao,  Z. Gan,  E. Epifanovsky,  A. T. B. Gilbert,  M. Wormit,  
 J. Kussmann,  A. W. Lange,  A. Behn,  J. Deng,  X. Feng,  D. Ghosh,  
 M. Goldey,  P. R. Horn,  L. D. Jacobson,  I. Kaliman,  F.Rob,  
 R. Z. Khaliullin,  T. Kus,  A. Landau,  J. Liu,  E. I. Proynov,  Y. M. Rhee,  
 R. M. Richard,  M. A. Rohrdanz,  R. P. Steele,  E. J. Sundstrom,  
 H. L. Woodcock III,  P. M. Zimmerman,  D. Zuev,  B. Albrecht,  E. Alguire,  
 B. Austin,  S. A. Baeppler,  G. J. O. Beran,  Y. A. Bernard,  E. Berquist,  
 K. Brandhorst,  K. B. Bravaya,  S. T. Brown,  D. Casanova,  C.-M. Chang,  
 Y. Chen,  S. H. Chien,  K. D. Closser,  M. P. Coons,  D. L. Crittenden,  
 S. Dasgupta,  M. Diedenhofen,  R. A. DiStasio Jr.,  H. Do,  A. D. Dutoi,  
 R. G. Edgar,  P.-T. Fang,  S. Fatehi,  Q. Feng,  L. Fusti-Molnar,  
 A. Ghysels,  A. Golubeva-Zadorozhnaya,  J. Gomes,  A. Gunina,  
 M. W. D. Hanson-Heine,  P. H. P. Harbach,  A. W. Hauser,  E. G. Hohenstein,  
 Z. C. Holden,  K. Hui,  T.-C. Jagau,  H. Ji,  B. Kaduk,  K. Khistyaev,  
 Jaehoon Kim,  Jihan Kim,  R. A. King,  P. Klunzinger,  D. Kosenkov,  
 T. Kowalczyk,  C. M. Krauter,  A. Kunitsa,  K. U. Lao,  A. Laurent,  
 K. V. Lawler,  D. Lefrancois,  S. Lehtola,  S. V. Levchenko,  C. Y. Lin,  
 Y.-S. Lin,  F. Liu,  E. Livshits,  R. C. Lochan,  A. Luenser,  P. Manohar,  
 S. F. Manzer,  S.-P. Mao,  Y. Mao,  N. Mardirossian,  A. V. Marenich,  
 L. A. Martinez-Martinez,  S. A. Maurer,  N. J. Mayhall,  J.-M. Mewes,  
 A. F. Morrison,  K. Nanda,  C. M. Oana,  R. Olivares-Amaya,  D. P. O'Neill,  
 J. A. Parkhill,  T. M. Perrine,  R. Peverati,  P. A. Pieniazek,  F. Plasser,  
 A. Prociuk,  D. R. Rehn,  E. Rosta,  N. J. Russ,  N. Sergueev,  
 S. M. Sharada,  S. Sharma,  D. W. Small,  A. Sodt,  T. Stauch,  T. Stein,  
 D. Stuck,  Y.-C. Su,  A. J. W. Thom,  T. Tsuchimochi,  L. Vogt,  O. Vydrov,  
 T. Wang,  M. A. Watson,  J. Wenzel,  A. White,  C. F. Williams,  
 V. Vanovschi,  S. Yeganeh,  S. R. Yost,  Z.-Q. You,  I. Y. Zhang,  X. Zhang,  
 Y. Zhao,  B. R. Brooks,  G. K. L. Chan,  D. M. Chipman,  C. J. Cramer,  
 W. A. Goddard III,  M. S. Gordon,  W. J. Hehre,  A. Klamt,  
 H. F. Schaefer III,  M. W. Schmidt,  C. D. Sherrill,  D. G. Truhlar,  
 A. Warshel,  X. Xu,  A. Aspuru-Guzik,  R. Baer,  A. T. Bell,  N. A. Besley,  
 J.-D. Chai,  A. Dreuw,  B. D. Dunietz,  T. R. Furlani,  S. R. Gwaltney,  
 C.-P. Hsu,  Y. Jung,  J. Kong,  D. S. Lambrecht,  W. Liang,  C. Ochsenfeld,  
 V. A. Rassolov,  L. V. Slipchenko,  J. E. Subotnik,  T. Van Voorhis,  
 J. M. Herbert,  A. I. Krylov,  P. M. W. Gill,  M. Head-Gordon

 Contributors to earlier versions of Q-Chem not listed above: 
 R. D. Adamson,  J. Baker,  E. F. C. Byrd,  A. K. Chakraborty,  C.-L. Cheng,  
 H. Dachsel,  R. J. Doerksen,  G. Hawkins,  A. Heyden,  S. Hirata,  
 G. Kedziora,  F. J. Keil,  C. Kelley,  P. P. Korambath,  W. Kurlancheek,  
 A. M. Lee,  M. S. Lee,  D. Liotard,  I. Lotan,  P. E. Maslen,  N. Nair,  
 D. Neuhauser,  R. Olson,  B. Peters,  J. Ritchie,  N. E. Schultz,  
 N. Shenvi,  A. C. Simmonett,  K. S. Thanthiriwatte,  Q. Wu,  W. Zhang

 Please cite Q-Chem as follows:
 Y. Shao et al., Mol. Phys. 113, 184-215 (2015)
 DOI: 10.1080/00268976.2014.952696

 Q-Chem 4.4.1 for Intel X86 Linux

 Parts of Q-Chem use Armadillo 5.200.1 (Boston Tea Smuggler).
 http://arma.sourceforge.net/

 Q-Chem begins on Fri Jan 17 19:28:03 2020  

Host: 
0

     Scratch files written to /tmp/5732633.priya/ZrOx.save//
 Jul2716 11668_ 21447  21445 5558   
 Parallel job on  1  processors
Processing $rem in /usr/usc/qchem/4.4/config/preferences.
 MEM_TOTAL  2000 

Checking the input file for inconsistencies... 	...done.

--------------------------------------------------------------
User input:
--------------------------------------------------------------
$comment
--------------------------------------------------------
A SINGLE POINT DFT CALCULATION WITH BASIS SET PROJECTION
--------------------------------------------------------
$end

$molecule
0 1
Zr -1.31227 0.00209 -0.11110
Zr 1.31229 0.00210 -0.11113
O -0.00003 -0.02577 1.29732
O -0.00004 -1.31717 -0.71937
O -0.00009 1.34445 -0.66665
O 2.85765 -0.01240 0.61351
O -2.85775 -0.01239 0.61332
$end

$rem
JOBTYPE   SP
METHOD   B3LYP
BASIS   GEN
ECP   GEN
MAX_SCF_CYCLES   200
SCF_CONVERGENCE 8
SCF_PRINT 1
PDB_PRINT 2
THRESH 14
VARTHRESH 14
INCDFT FALSE
SYMMETRY False
Sym_ignore True
SCF_ALGORITHM GDM
XC_GRID 000128000302
DFT_D           EMPIRICAL_GRIMME3
DFT_D3_S6       1000
DFT_D3_RS6     1261
DFT_D3_S8      1703
DFT_D3_3BODY    FALSE
$end

$basis
O
6-31+G**
****
S
6-31+G**
****
Zr
LanL2DZ
****
$end

$ecp
Zr
LanL2DZ
****
$end

--------------------------------------------------------------
 ----------------------------------------------------------------
             Standard Nuclear Orientation (Angstroms)
    I     Atom           X                Y                Z
 ----------------------------------------------------------------
    1      Zr     -1.3122700000     0.0020900000    -0.1111000000
    2      Zr      1.3122900000     0.0021000000    -0.1111300000
    3      O      -0.0000300000    -0.0257700000     1.2973200000
    4      O      -0.0000400000    -1.3171700000    -0.7193700000
    5      O      -0.0000900000     1.3444500000    -0.6666500000
    6      O       2.8576500000    -0.0124000000     0.6135100000
    7      O      -2.8577500000    -0.0123900000     0.6133200000
 ----------------------------------------------------------------
 Nuclear Repulsion Energy =   378.8132747163 hartrees
 There are       32 alpha and       32 beta electrons

 Q-Chem warning in module /home/scratch/svnadmin/11668_zgan/qchem/forms1/BasisType.C, line 1419:

 Setting pure/cartesian flag to 2111 for general basis


 Requested basis set is non-standard
 There are 41 shells and 134 basis functions

 Total QAlloc Memory Limit   2000 MB
 Mega-Array Size        61 MB
 MEM_STATIC part        62 MB

                       Distance Matrix (Angstroms)
             Zr(  1)   Zr(  2)   O (  3)   O (  4)   O (  5)   O (  6)
   Zr(  2)  2.624560
   O (  3)  1.925200  1.925277
   O (  4)  1.957648  1.957713  2.394734
   O (  5)  1.957647  1.957766  2.394719  2.662142
   O (  6)  4.232435  1.706883  2.938386  3.412534  3.412701
   O (  7)  1.706898  4.232525  2.938469  3.412480  3.412559  5.715400

 
 A cutoff of  1.0D-14 yielded    835 shell pairs
 There are      9102 function pairs (     10377 Cartesian)
 
 -------------------------------------------------------
 OpenMP Integral Computing Module                       
 Release: version 1.0, May 2013, Q-Chem Inc. Pittsburgh 
 -------------------------------------------------------
 Integral Job Info:
 Integral job number is                      11
 Integral operator is                         1
 short-range coefficients                     0
 long-range coefficients              100000000
 Omega coefficients                           0
 if combine SR and LR in K                    0
 Integral screening is                        0
 Integral computing path is                   2
 max size of driver memory is            800000
 size of driver memory is                593474
 size of scratch memory is             11771240
 max col of scratch BK array               1296
 max len of scratch array in speh3          155
 max len of scratch index in speh4           18
 max int batch size is                      520
 min int batch size is                       52
 fixed nKL is                                52
 max L of basis functions is                  2
 order of int derivative is                   0
 number of shells is                         41
 number of basis is                         143
 number of cartesian basis is               143
 number of contracted shell pairs           835
 number of primitive shell pairs           3817
 maxK2 (contraction) of shell pair           36
 max number of K2 of shell pair               1
 max number of CS2 of shell pair             70
 max number of PS2 of shell pair            360
 mem total for path MDJ                   39304
 -------------------------------------------------------
 Requested basis set is non-standard
 Compound shells will be simplified
 There are 56 shells and 134 basis functions
 A cutoff of  1.0D-14 yielded   1555 shell pairs
 There are      9057 function pairs (     10332 Cartesian)
 Smallest overlap matrix eigenvalue = 4.05E-04

 Scale SEOQF with 1.000000e-01/1.000000e-01/1.000000e-01

 Standard Electronic Orientation quadrupole field applied
 Nucleus-field energy     =     0.0000000052 hartrees
 Guess MOs from core Hamiltonian diagonalization
 A restricted hybrid HF-DFT SCF calculation will be
 performed using Geometric Direct Minimization
 Exchange:     0.2000 Hartree-Fock + 0.0800 Slater + 0.7200 B88
 Correlation:  0.1900 VWN1RPA + 0.8100 LYP
 Using Euler-Maclaurin-Lebedev (128,302) quadrature formula
 Dispersion:   Grimme D3
 SCF converges when RMS gradient is below 1.0E-08
 Maximum number of minimization steps = 200
 using 12 threads for integral computing 
 -------------------------------------------------------
 OpenMP BLAS3 based DFT computing Module                
 Release: version 1.0, May 2013, Q-Chem Inc. Pittsburgh 
 -------------------------------------------------------
 
   ------------------- Entering Geometric Direct Minimization ------------------
   GDM:         diagonal hessian shift is      0.000000000000000E+000
   GDM::PreWSS: input subspace size is                  1
   GDM::PreWSS: working subspace size set to            1
   GDM::PrEWSS: # of linearly dependent vectors =            0
   GDM::PrEWSS: Max dev from orthonormality =   0.000000000000000E+000
   GDM::BFGS:   lowest Hinv e-value     1.00000000000000     
   GDM::BFGS:   highest Hinv e-value    1.00000000000000     
   GDM::      : max scaling in EWCs is          1.41421356237309     
   GDM::      : max rotation in step is       -0.158333601483614     
   GDM::        grad.step =   -2.57773721836381     
   ------- Leaving GDM -- hopefully with a step in the right direction! --------
 
 ---------------------------------------
  Cycle       Energy        RMS Gradient
 ---------------------------------------
    1    -418.4917582571      2.65E+00  Gap = 0.00 eV  Descent step
 
   ------------------- Entering Geometric Direct Minimization ------------------
   GDM::trust : actual energy change is        -5.04522314485496     
   GDM::trust : predicted energy change was   -0.163350000000000     
   GDM::trust : updated trust radius is        0.330000000000000     
   GDM:         diagonal hessian shift is      0.000000000000000E+000
   GDM::PreWSS: input subspace size is                  2
   GDM::PreWSS: working subspace size set to            2
   GDM::PrEWSS: # of linearly dependent vectors =            0
   GDM::PrEWSS: Max dev from orthonormality =   1.193836696167239E-014
   GDM::BFGS:   lowest Hinv e-value    0.539686401582342     
   GDM::BFGS:   highest Hinv e-value    2.46610843686378     
   GDM::      : max scaling in EWCs is          1.41421356237309     
   GDM::      : max rotation in step is        9.995055856662138E-002
   GDM::        grad.step =   -2.34610771478164     
   ------- Leaving GDM -- hopefully with a step in the right direction! --------
 
    2    -423.5369814019      1.52E+00  Gap = 0.00 eV  Descent step
 
   ------------------- Entering Geometric Direct Minimization ------------------
   GDM::trust : actual energy change is        -4.58318117824609     
   GDM::trust : predicted energy change was   -0.143342346093129     
   GDM::trust : updated trust radius is        0.330000000000000     
   GDM::search:  On step            1 .  The current bracket is:
       left   : x =  0.0000E+00, e =      -423.5369814019, g = -0.6923E+01
       current: x =  0.3389E+00, e =      -428.1201625802, g = -0.6536E+01
       right  : x =  0.1000E+04, e =      1000.0000000000, g =  0.1000E+04
       next   : x =  0.3389E+01
   GDM::      : max rotation in step is        0.999505585666214     
   ------- Leaving GDM -- hopefully with a step in the right direction! --------
 
    3    -428.1201625802      1.21E+00  Gap = 0.00 eV  Line search: understep
 
   ------------------- Entering Geometric Direct Minimization ------------------
   GDM::trust : actual energy change is        -11.3115865777349     
   GDM::trust : predicted energy change was   -0.143342346093129     
   GDM::trust : updated trust radius is        0.330000000000000     
   GDM:         diagonal hessian shift is      0.000000000000000E+000
   GDM::PreWSS: input subspace size is                  3
   GDM::PreWSS: working subspace size set to            3
   GDM::PrEWSS: # of linearly dependent vectors =            0
   GDM::PrEWSS: Max dev from orthonormality =   1.108835245844375E-014
   GDM::BFGS:   lowest Hinv e-value    0.246624699184532     
   GDM::BFGS:   highest Hinv e-value    2.40763204691093     
   GDM::      : max scaling in EWCs is          2.82842712474619     
   GDM::      : max rotation in step is        0.195998898033850     
   GDM::        grad.step =   -2.10045434428674     
   ------- Leaving GDM -- hopefully with a step in the right direction! --------
 
    4    -434.8485679797      1.97E+00  Gap = 0.00 eV  Descent step
 
   ------------------- Entering Geometric Direct Minimization ------------------
   GDM::trust : actual energy change is        -4.09198473794163     
   GDM::trust : predicted energy change was   -0.228234986437944     
   GDM::trust : updated trust radius is        0.330000000000000     
   GDM:         diagonal hessian shift is      0.000000000000000E+000
   GDM::PreWSS: input subspace size is                  4
   GDM::PreWSS: working subspace size set to            4
   GDM::PrEWSS: # of linearly dependent vectors =            0
   GDM::PrEWSS: Max dev from orthonormality =   1.016131623288175E-013
   GDM::BFGS:   lowest Hinv e-value    0.252864876545097     
   GDM::BFGS:   highest Hinv e-value    5.76506188017485     
   GDM::      : max scaling in EWCs is          2.82842712474619     
   GDM::      : max rotation in step is       -0.264570640658541     
   GDM::        grad.step =   -2.26096280312841     
   ------- Leaving GDM -- hopefully with a step in the right direction! --------
 
    5    -438.9405527176      2.00E+00  Gap = 0.00 eV  Descent step
 
   ------------------- Entering Geometric Direct Minimization ------------------
   GDM::trust : actual energy change is        -4.38459280289152     
   GDM::trust : predicted energy change was   -0.190825356308436     
   GDM::trust : updated trust radius is        0.330000000000000     
   GDM:         diagonal hessian shift is      0.000000000000000E+000
   GDM::PreWSS: input subspace size is                  5
   GDM::PreWSS: working subspace size set to            5
   GDM::PrEWSS: # of linearly dependent vectors =            0
   GDM::PrEWSS: Max dev from orthonormality =   3.249466667964995E-013
   GDM::BFGS:   lowest Hinv e-value    0.367048075947139     
   GDM::BFGS:   highest Hinv e-value    4.33160122661876     
   GDM::      : max scaling in EWCs is          2.82842712474619     
   GDM::      : max rotation in step is       -0.380750863555367     
   GDM::        grad.step =   -1.90959404324330     
   ------- Leaving GDM -- hopefully with a step in the right direction! --------
 
    6    -443.3251455205      2.85E+00  Gap = 0.00 eV  Descent step
 
   ------------------- Entering Geometric Direct Minimization ------------------
   GDM::trust : actual energy change is        -3.64297446802840     
   GDM::trust : predicted energy change was   -0.154456287017355     
   GDM::trust : updated trust radius is        0.330000000000000     
   GDM:         diagonal hessian shift is      0.000000000000000E+000
   GDM::PreWSS: input subspace size is                  6
   GDM::PreWSS: working subspace size set to            6
   GDM::PrEWSS: # of linearly dependent vectors =            0
   GDM::PrEWSS: Max dev from orthonormality =   2.551014954832453E-013
   GDM::BFGS:   lowest Hinv e-value    0.343070177784656     
   GDM::BFGS:   highest Hinv e-value    4.61918736346252     
   GDM::      : max scaling in EWCs is          2.82842712474619     
   GDM::      : max rotation in step is       -0.176771493809691     
   GDM::        grad.step =   -1.33491800230284     
   ------- Leaving GDM -- hopefully with a step in the right direction! --------
 
    7    -446.9681199885      1.21E+00  Gap = 0.00 eV  Descent step
 
   ------------------- Entering Geometric Direct Minimization ------------------
   GDM::trust : actual energy change is        -2.55884848950728     
   GDM::trust : predicted energy change was   -0.148178813793755     
   GDM::trust : updated trust radius is        0.330000000000000     
   GDM:         diagonal hessian shift is      0.000000000000000E+000
   GDM::PreWSS: input subspace size is                  7
   GDM::PreWSS: working subspace size set to            7
   GDM::PrEWSS: # of linearly dependent vectors =            0
   GDM::PrEWSS: Max dev from orthonormality =   4.677716547440980E-013
   GDM::BFGS:   lowest Hinv e-value    0.354321322130363     
   GDM::BFGS:   highest Hinv e-value    5.19799400596043     
   GDM::      : max scaling in EWCs is          2.82842712474619     
   GDM::      : max rotation in step is        0.238282311299115     
   GDM::        grad.step =   -1.13054287924833     
   ------- Leaving GDM -- hopefully with a step in the right direction! --------
 
    8    -449.5269684780      9.17E-01  Gap = 0.00 eV  Descent step
 
   ------------------- Entering Geometric Direct Minimization ------------------
   GDM::trust : actual energy change is        -2.16682072075639     
   GDM::trust : predicted energy change was   -0.142273962995861     
   GDM::trust : updated trust radius is        0.330000000000000     
   GDM:         diagonal hessian shift is      0.000000000000000E+000
   GDM::PreWSS: input subspace size is                  8
   GDM::PreWSS: working subspace size set to            8
   GDM::PrEWSS: # of linearly dependent vectors =            0
   GDM::PrEWSS: Max dev from orthonormality =   6.483945325097551E-013
   GDM::BFGS:   lowest Hinv e-value    0.320913659475171     
   GDM::BFGS:   highest Hinv e-value    5.78314156480147     
   GDM::      : max scaling in EWCs is          2.82842712474619     
   GDM::      : max rotation in step is       -0.215149918852899     
   GDM::        grad.step =  -0.964793628400889     
   ------- Leaving GDM -- hopefully with a step in the right direction! --------
 
    9    -451.6937891988      6.74E-01  Gap = 0.00 eV  Descent step
 
   ------------------- Entering Geometric Direct Minimization ------------------
   GDM::trust : actual energy change is        -1.84205235427515     
   GDM::trust : predicted energy change was   -0.139474647861026     
   GDM::trust : updated trust radius is        0.330000000000000     
   GDM:         diagonal hessian shift is      0.000000000000000E+000
   GDM::PreWSS: input subspace size is                  9
   GDM::PreWSS: working subspace size set to            9
   GDM::PrEWSS: # of linearly dependent vectors =            0
   GDM::PrEWSS: Max dev from orthonormality =   1.167481042396723E-012
   GDM::BFGS:   lowest Hinv e-value    0.267282201972875     
   GDM::BFGS:   highest Hinv e-value    6.22123918440979     
   GDM::      : max scaling in EWCs is          2.82842712474619     
   GDM::      : max rotation in step is        0.192097239840489     
   GDM::        grad.step =  -0.853680559999221     
   ------- Leaving GDM -- hopefully with a step in the right direction! --------
 
   10    -453.5358415531      6.11E-01  Gap = 0.00 eV  Descent step
 
   ------------------- Entering Geometric Direct Minimization ------------------
   GDM::trust : actual energy change is        -1.64306750856923     
   GDM::trust : predicted energy change was   -0.134093324513590     
   GDM::trust : updated trust radius is        0.330000000000000     
   GDM:         diagonal hessian shift is      0.000000000000000E+000
   GDM::PreWSS: input subspace size is                 10
   GDM::PreWSS: working subspace size set to           10
   GDM::PrEWSS: # of linearly dependent vectors =            0
   GDM::PrEWSS: Max dev from orthonormality =   1.266865952420648E-012
   GDM::BFGS:   lowest Hinv e-value    0.212348266751496     
   GDM::BFGS:   highest Hinv e-value    6.65056303816771     
   GDM::      : max scaling in EWCs is          2.82842712474619     
   GDM::      : max rotation in step is        0.170536365223486     
   GDM::        grad.step =  -0.789533097467992     
   ------- Leaving GDM -- hopefully with a step in the right direction! --------
 
   11    -455.1789090616      7.23E-01  Gap = 0.00 eV  Descent step
 
   ------------------- Entering Geometric Direct Minimization ------------------
   GDM::trust : actual energy change is        -1.52608824042017     
   GDM::trust : predicted energy change was   -0.129479251608522     
   GDM::trust : updated trust radius is        0.330000000000000     
   GDM:         diagonal hessian shift is      0.000000000000000E+000
   GDM::PreWSS: input subspace size is                 11
   GDM::PreWSS: working subspace size set to           11
   GDM::PrEWSS: # of linearly dependent vectors =            0
   GDM::PrEWSS: Max dev from orthonormality =   1.940739235983813E-012
   GDM::BFGS:   lowest Hinv e-value    0.175688599938806     
   GDM::BFGS:   highest Hinv e-value    7.02572559310039     
   GDM::      : max scaling in EWCs is          2.82842712474619     
   GDM::      : max rotation in step is       -0.282874694337377     
   GDM::        grad.step =  -0.780923890324967     
   ------- Leaving GDM -- hopefully with a step in the right direction! --------
 
   12    -456.7049973021      8.78E-01  Gap = 0.00 eV  Descent step
 
   ------------------- Entering Geometric Direct Minimization ------------------
   GDM::trust : actual energy change is        -1.39497433478851     
   GDM::trust : predicted energy change was   -0.132598944329548     
   GDM::trust : updated trust radius is        0.330000000000000     
   GDM:         diagonal hessian shift is      0.000000000000000E+000
   GDM::PreWSS: input subspace size is                 12
   GDM::PreWSS: working subspace size set to           12
   GDM::PrEWSS: # of linearly dependent vectors =            0
   GDM::PrEWSS: Max dev from orthonormality =   4.439237172304544E-012
   GDM::BFGS:   lowest Hinv e-value    0.174443927645485     
   GDM::BFGS:   highest Hinv e-value    7.34233895498865     
   GDM::      : max scaling in EWCs is          2.82842712474619     
   GDM::      : max rotation in step is       -0.360695244832461     
   GDM::        grad.step =  -0.786408408320951     
   ------- Leaving GDM -- hopefully with a step in the right direction! --------
 
   13    -458.0999716368      1.25E+00  Gap = 0.00 eV  Descent step
 
   ------------------- Entering Geometric Direct Minimization ------------------
   GDM::trust : actual energy change is        -1.42582178139139     
   GDM::trust : predicted energy change was   -0.160175557736042     
   GDM::trust : updated trust radius is        0.330000000000000     
   GDM:         diagonal hessian shift is      0.000000000000000E+000
   GDM::PreWSS: input subspace size is                 13
   GDM::PreWSS: working subspace size set to           13
   GDM::PrEWSS: # of linearly dependent vectors =            0
   GDM::PrEWSS: Max dev from orthonormality =   5.810660980154481E-012
   GDM::BFGS:   lowest Hinv e-value    0.152705795907321     
   GDM::BFGS:   highest Hinv e-value    7.58654069052935     
   GDM::      : max scaling in EWCs is          2.82842712474619     
   GDM::      : max rotation in step is       -0.810847497067859     
   GDM::        grad.step =   -1.15555675339563     
   ------- Leaving GDM -- hopefully with a step in the right direction! --------
 
   14    -459.5257934182      3.04E+00  Gap = 0.00 eV  Descent step
 
   ------------------- Entering Geometric Direct Minimization ------------------
   GDM::trust : actual energy change is        -1.56503300484121     
   GDM::trust : predicted energy change was   -0.223481493941678     
   GDM::trust : updated trust radius is        0.330000000000000     
   GDM:         diagonal hessian shift is      0.000000000000000E+000
   GDM::PreWSS: input subspace size is                 14
   GDM::PreWSS: working subspace size set to           14
   GDM::PrEWSS: # of linearly dependent vectors =            0
   GDM::PrEWSS: Max dev from orthonormality =   1.280170414119652E-012
   GDM::BFGS:   lowest Hinv e-value    0.207261663345643     
   GDM::BFGS:   highest Hinv e-value    7.76129235075100     
   GDM::      : max scaling in EWCs is          2.82842712474619     
   GDM::      : max rotation in step is       -0.393908158537301     
   GDM::        grad.step =  -0.712964425323638     
   ------- Leaving GDM -- hopefully with a step in the right direction! --------
 
   15    -461.0908264231      9.12E-01  Gap = 0.00 eV  Descent step
 
   ------------------- Entering Geometric Direct Minimization ------------------
   GDM::trust : actual energy change is        -1.18791850151081     
   GDM::trust : predicted energy change was   -0.171043802533139     
   GDM::trust : updated trust radius is        0.330000000000000     
   GDM:         diagonal hessian shift is      0.000000000000000E+000
   GDM::PreWSS: input subspace size is                 15
   GDM::PreWSS: working subspace size set to           15
   GDM::PrEWSS: # of linearly dependent vectors =            0
   GDM::PrEWSS: Max dev from orthonormality =   1.942543348398829E-012
   GDM::BFGS:   lowest Hinv e-value    0.251736679752659     
   GDM::BFGS:   highest Hinv e-value    8.05601641479546     
   GDM::      : max scaling in EWCs is          2.82842712474619     
   GDM::      : max rotation in step is        0.199400519020083     
   GDM::        grad.step =  -0.530523281683044     
   ------- Leaving GDM -- hopefully with a step in the right direction! --------
 
   16    -462.2787449246      3.64E-01  Gap = 0.00 eV  Descent step
 
   ------------------- Entering Geometric Direct Minimization ------------------
   GDM::trust : actual energy change is       -0.994619889430737     
   GDM::trust : predicted energy change was   -0.175637589960722     
   GDM::trust : updated trust radius is        0.330000000000000     
   GDM:         diagonal hessian shift is      0.000000000000000E+000
   GDM::PreWSS: input subspace size is                 16
   GDM::PreWSS: working subspace size set to           16
   GDM::PrEWSS: # of linearly dependent vectors =            0
   GDM::PrEWSS: Max dev from orthonormality =   1.928388004834858E-012
   GDM::BFGS:   lowest Hinv e-value    0.182531922374655     
   GDM::BFGS:   highest Hinv e-value    8.20020303914993     
   GDM::      : max scaling in EWCs is          2.82842712474619     
   GDM::      : max rotation in step is        0.201968175345727     
   GDM::        grad.step =  -0.501589790717277     
   ------- Leaving GDM -- hopefully with a step in the right direction! --------
 
   17    -463.2733648140      5.98E-01  Gap = 0.00 eV  Descent step
 
   ------------------- Entering Geometric Direct Minimization ------------------
   GDM::trust : actual energy change is       -0.961272082541882     
   GDM::trust : predicted energy change was   -0.121985312878581     
   GDM::trust : updated trust radius is        0.330000000000000     
   GDM:         diagonal hessian shift is      0.000000000000000E+000
   GDM::PreWSS: input subspace size is                 17
   GDM::PreWSS: working subspace size set to           17
   GDM::PrEWSS: # of linearly dependent vectors =            0
   GDM::PrEWSS: Max dev from orthonormality =   5.012892878575315E-012
   GDM::BFGS:   lowest Hinv e-value    0.196872555347931     
   GDM::BFGS:   highest Hinv e-value    8.53030045485659     
   GDM::      : max scaling in EWCs is          2.82842712474619     
   GDM::      : max rotation in step is        0.319637568228610     
   GDM::        grad.step =  -0.593345579105154     
   ------- Leaving GDM -- hopefully with a step in the right direction! --------
 
   18    -464.2346368966      1.09E+00  Gap = 0.00 eV  Descent step
 
   ------------------- Entering Geometric Direct Minimization ------------------
   GDM::trust : actual energy change is        -1.11976983479479     
   GDM::trust : predicted energy change was   -0.159475369068415     
   GDM::trust : updated trust radius is        0.330000000000000     
   GDM:         diagonal hessian shift is      0.000000000000000E+000
   GDM::PreWSS: input subspace size is                 18
   GDM::PreWSS: working subspace size set to           18
   GDM::PrEWSS: # of linearly dependent vectors =            0
   GDM::PrEWSS: Max dev from orthonormality =   3.348085697574277E-012
   GDM::BFGS:   lowest Hinv e-value    0.189566483178144     
   GDM::BFGS:   highest Hinv e-value    8.51177362223633     
   GDM::      : max scaling in EWCs is          2.82842712474619     
   GDM::      : max rotation in step is       -0.592125742783697     
   GDM::        grad.step =  -0.695864089071605     
   ------- Leaving GDM -- hopefully with a step in the right direction! --------
 
   19    -465.3544067314      1.34E+00  Gap = 0.00 eV  Descent step
 
   ------------------- Entering Geometric Direct Minimization ------------------
   GDM::trust : actual energy change is        -1.12257157890969     
   GDM::trust : predicted energy change was   -0.192111925972642     
   GDM::trust : updated trust radius is        0.330000000000000     
   GDM:         diagonal hessian shift is      0.000000000000000E+000
   GDM::PreWSS: input subspace size is                 19
   GDM::PreWSS: working subspace size set to           18
   GDM::PrEWSS: # of linearly dependent vectors =            0
   GDM::PrEWSS: Max dev from orthonormality =   3.092207045973794E-012
   GDM::BFGS:   lowest Hinv e-value    0.200312591777164     
   GDM::BFGS:   highest Hinv e-value    9.63039843085896     
   GDM::      : max scaling in EWCs is          2.82842712474619     
   GDM::      : max rotation in step is        0.477337998225850     
   GDM::        grad.step =  -0.486596830530939     
   ------- Leaving GDM -- hopefully with a step in the right direction! --------
 
   20    -466.4769783103      7.54E-01  Gap = 0.00 eV  Descent step
 
   ------------------- Entering Geometric Direct Minimization ------------------
   GDM::trust : actual energy change is       -0.852583980210966     
   GDM::trust : predicted energy change was   -0.201799943828446     
   GDM::trust : updated trust radius is        0.330000000000000     
   GDM:         diagonal hessian shift is      0.000000000000000E+000
   GDM::PreWSS: input subspace size is                 19
   GDM::PreWSS: working subspace size set to           18
   GDM::PrEWSS: # of linearly dependent vectors =            0
   GDM::PrEWSS: Max dev from orthonormality =   2.848374314190494E-012
   GDM::BFGS:   lowest Hinv e-value    0.223719671081882     
   GDM::BFGS:   highest Hinv e-value    9.79339316748749     
   GDM::      : max scaling in EWCs is          2.82842712474619     
   GDM::      : max rotation in step is       -0.619750827610774     
   GDM::        grad.step =  -0.415806930958784     
   ------- Leaving GDM -- hopefully with a step in the right direction! --------
 
   21    -467.3295622905      8.37E-01  Gap = 0.00 eV  Descent step
 
   ------------------- Entering Geometric Direct Minimization ------------------
   GDM::trust : actual energy change is       -0.577810314809085     
   GDM::trust : predicted energy change was   -0.155628019632577     
   GDM::trust : updated trust radius is        0.330000000000000     
   GDM:         diagonal hessian shift is      0.000000000000000E+000
   GDM::PreWSS: input subspace size is                 19
   GDM::PreWSS: working subspace size set to           18
   GDM::PrEWSS: # of linearly dependent vectors =            0
   GDM::PrEWSS: Max dev from orthonormality =   1.531205717775208E-012
   GDM::BFGS:   lowest Hinv e-value    0.169361058193709     
   GDM::BFGS:   highest Hinv e-value    12.1021109219016     
   GDM::      : max scaling in EWCs is          2.82842712474619     
   GDM::      : max rotation in step is       -0.577877049936063     
   GDM::        grad.step =  -0.401766119699320     
   ------- Leaving GDM -- hopefully with a step in the right direction! --------
 
   22    -467.9073726053      7.54E-01  Gap = 0.00 eV  Descent step
 
   ------------------- Entering Geometric Direct Minimization ------------------
   GDM::trust : actual energy change is       -0.577169888774108     
   GDM::trust : predicted energy change was   -0.248173394176586     
   GDM::trust : updated trust radius is        0.330000000000000     
   GDM:         diagonal hessian shift is      0.000000000000000E+000
   GDM::PreWSS: input subspace size is                 19
   GDM::PreWSS: working subspace size set to           18
   GDM::PrEWSS: # of linearly dependent vectors =            0
   GDM::PrEWSS: Max dev from orthonormality =   1.493936918617322E-012
   GDM::BFGS:   lowest Hinv e-value    0.152830720708012     
   GDM::BFGS:   highest Hinv e-value    10.2923645337179     
   GDM::      : max scaling in EWCs is          2.82842712474619     
   GDM::      : max rotation in step is       -0.679715394300567     
   GDM::        grad.step =  -0.417661870752142     
   ------- Leaving GDM -- hopefully with a step in the right direction! --------
 
   23    -468.4845424941      9.22E-01  Gap = 0.00 eV  Descent step
 
   ------------------- Entering Geometric Direct Minimization ------------------
   GDM::trust : actual energy change is       -0.451236190850693     
   GDM::trust : predicted energy change was   -0.211721414196157     
   GDM::trust : updated trust radius is        0.330000000000000     
   GDM:         diagonal hessian shift is      0.000000000000000E+000
   GDM::PreWSS: input subspace size is                 19
   GDM::PreWSS: working subspace size set to           18
   GDM::PrEWSS: # of linearly dependent vectors =            0
   GDM::PrEWSS: Max dev from orthonormality =   1.248320891100718E-012
   GDM::BFGS:   lowest Hinv e-value    0.193467897356508     
   GDM::BFGS:   highest Hinv e-value    12.4961674758019     
   GDM::      : max scaling in EWCs is          2.82842712474619     
   GDM::      : max rotation in step is        0.205178225972184     
   GDM::        grad.step =  -0.223173192325306     
   ------- Leaving GDM -- hopefully with a step in the right direction! --------
 
   24    -468.9357786849      1.49E-01  Gap = 0.00 eV  Descent step
 
   ------------------- Entering Geometric Direct Minimization ------------------
   GDM::trust : actual energy change is       -2.360314900454341E-002
   GDM::trust : predicted energy change was   -0.286655880477752     
   GDM::trust : updated trust radius is        0.330000000000000     
   GDM:         diagonal hessian shift is      0.000000000000000E+000
   GDM::PreWSS: input subspace size is                 19
   GDM::PreWSS: working subspace size set to           18
   GDM::PrEWSS: # of linearly dependent vectors =            0
   GDM::PrEWSS: Max dev from orthonormality =   1.163021068339987E-012
   GDM::BFGS:   lowest Hinv e-value    0.181602325986498     
   GDM::BFGS:   highest Hinv e-value    11.1041790694264     
   GDM::      : max scaling in EWCs is          2.82842712474619     
   GDM::      : max rotation in step is       -0.493959428926868     
   GDM::        grad.step =  -0.322211845667944     
   ------- Leaving GDM -- hopefully with a step in the right direction! --------
 
   25    -468.9593818339      7.29E-01  Gap = 0.00 eV  Descent step
 
   ------------------- Entering Geometric Direct Minimization ------------------
   GDM::trust : actual energy change is        0.166782669614918     
   GDM::trust : predicted energy change was   -0.370073865706523     
   GDM::trust : updated trust radius is        0.108900000000000     
   GDM::search:  On step            1 .  The current bracket is:
       left   : x =  0.0000E+00, e =      -468.9593818339, g = -0.5684E+00
       current: x =  0.5669E+00, e =      -468.7925991643, g =  0.8374E+00
       right  : x =  0.1000E+04, e =      1000.0000000000, g =  0.1000E+04
       next   : x =  0.1868E+00
   GDM::      : max rotation in step is       -0.162741681455817     
   ------- Leaving GDM -- hopefully with a step in the right direction! --------
 
   26    -468.7925991643      6.87E-02  Gap = 0.00 eV  Line search: overstep
 
   ------------------- Entering Geometric Direct Minimization ------------------
   GDM::trust : actual energy change is       -0.131686419526943     
   GDM::trust : predicted energy change was   -0.370073865706523     
   GDM::trust : updated trust radius is        0.108900000000000     
   GDM:         diagonal hessian shift is      0.000000000000000E+000
   GDM::PreWSS: input subspace size is                 19
   GDM::PreWSS: working subspace size set to           18
   GDM::PrEWSS: # of linearly dependent vectors =            0
   GDM::PrEWSS: Max dev from orthonormality =   1.586633602279619E-012
   GDM::BFGS:   lowest Hinv e-value    7.683438593325130E-002
   GDM::BFGS:   highest Hinv e-value    11.1976828922897     
   GDM::      : max scaling in EWCs is          2.82842712474619     
   GDM::      : max rotation in step is       -8.242560077090925E-002
   GDM::        grad.step =  -3.541497611119628E-002
   ------- Leaving GDM -- hopefully with a step in the right direction! --------
 
   27    -469.0910682534      1.22E-01  Gap = 0.00 eV  Descent step
 
   ------------------- Entering Geometric Direct Minimization ------------------
   GDM::trust : actual energy change is       -3.585593191849057E-002
   GDM::trust : predicted energy change was   -2.310412605285769E-002
   GDM::trust : updated trust radius is        0.330000000000000     
   GDM:         diagonal hessian shift is      0.000000000000000E+000
   GDM::PreWSS: input subspace size is                 19
   GDM::PreWSS: working subspace size set to           18
   GDM::PrEWSS: # of linearly dependent vectors =            0
   GDM::PrEWSS: Max dev from orthonormality =   4.613393000951760E-013
   GDM::BFGS:   lowest Hinv e-value    0.117893287117190     
   GDM::BFGS:   highest Hinv e-value    11.7876743149193     
   GDM::      : max scaling in EWCs is          2.82842712474619     
   GDM::      : max rotation in step is       -0.235922660137434     
   GDM::        grad.step =  -4.131574044235069E-002
   ------- Leaving GDM -- hopefully with a step in the right direction! --------
 
   28    -469.1269241854      1.70E-01  Gap = 93.59 eV  Normal BFGS step
 
   ------------------- Entering Geometric Direct Minimization ------------------
   GDM::trust : actual energy change is       -2.225203762725414E-002
   GDM::trust : predicted energy change was   -6.197361066352606E-002
   GDM::trust : updated trust radius is        0.330000000000000     
   GDM:         diagonal hessian shift is      0.000000000000000E+000
   GDM::PreWSS: input subspace size is                 19
   GDM::PreWSS: working subspace size set to           18
   GDM::PrEWSS: # of linearly dependent vectors =            0
   GDM::PrEWSS: Max dev from orthonormality =   4.714909018765923E-013
   GDM::BFGS:   lowest Hinv e-value    0.142637978284294     
   GDM::BFGS:   highest Hinv e-value    11.4894364332079     
   GDM::trust : dogleg step length is          0.330000000000000     
   GDM::      : max scaling in EWCs is          2.82842712474619     
   GDM::      : max rotation in step is        0.137072473386248     
   GDM::        grad.step =  -4.601596380487354E-002
   ------- Leaving GDM -- hopefully with a step in the right direction! --------
 
   29    -469.1491762230      8.83E-02  Gap = 93.59 eV  Dog-leg BFGS step
 
   ------------------- Entering Geometric Direct Minimization ------------------
   GDM::trust : actual energy change is        3.972793565969823E-002
   GDM::trust : predicted energy change was   -7.841044181951670E-002
   GDM::trust : updated trust radius is        0.108900000000000     
   GDM::search:  On step            1 .  The current bracket is:
       left   : x =  0.0000E+00, e =      -469.1491762230, g = -0.1482E+00
       current: x =  0.3105E+00, e =      -469.1094482873, g =  0.2639E+00
       right  : x =  0.1000E+04, e =      1000.0000000000, g =  0.1000E+04
       next   : x =  0.8332E-01
   GDM::      : max rotation in step is        3.678117051693130E-002
   ------- Leaving GDM -- hopefully with a step in the right direction! --------
 
   30    -469.1094482873      3.00E-02  Gap = 93.59 eV  Line search: overstep
 
   ------------------- Entering Geometric Direct Minimization ------------------
   GDM::trust : actual energy change is       -1.481731443374201E-002
   GDM::trust : predicted energy change was   -7.841044181951670E-002
   GDM::trust : updated trust radius is        0.108900000000000     
   GDM:         diagonal hessian shift is      0.000000000000000E+000
   GDM::PreWSS: input subspace size is                 19
   GDM::PreWSS: working subspace size set to           18
   GDM::PrEWSS: # of linearly dependent vectors =            0
   GDM::PrEWSS: Max dev from orthonormality =   2.309610835915521E-013
   GDM::BFGS:   lowest Hinv e-value    0.152399399202842     
   GDM::BFGS:   highest Hinv e-value    7.06943401029820     
   GDM::      : max scaling in EWCs is          2.82842712474619     
   GDM::      : max rotation in step is       -7.767289847304855E-002
   GDM::        grad.step =  -1.399670440848032E-002
   ------- Leaving GDM -- hopefully with a step in the right direction! --------
 
   31    -469.1639935374      5.58E-02  Gap = 93.59 eV  Descent step
 
   ------------------- Entering Geometric Direct Minimization ------------------
   GDM::trust : actual energy change is       -1.333232486757652E-002
   GDM::trust : predicted energy change was   -1.733690403756906E-002
   GDM::trust : updated trust radius is        0.330000000000000     
   GDM:         diagonal hessian shift is      0.000000000000000E+000
   GDM::PreWSS: input subspace size is                 19
   GDM::PreWSS: working subspace size set to           18
   GDM::PrEWSS: # of linearly dependent vectors =            0
   GDM::PrEWSS: Max dev from orthonormality =   3.297986883588067E-013
   GDM::BFGS:   lowest Hinv e-value    0.138518605869964     
   GDM::BFGS:   highest Hinv e-value    6.04797913932080     
   GDM::      : max scaling in EWCs is          2.82842712474619     
   GDM::      : max rotation in step is       -0.396470692475586     
   GDM::        grad.step =  -2.711487629224123E-002
   ------- Leaving GDM -- hopefully with a step in the right direction! --------
 
   32    -469.1773258623      1.21E-01  Gap = 93.59 eV  Normal BFGS step
 
   ------------------- Entering Geometric Direct Minimization ------------------
   GDM::trust : actual energy change is        3.094861080734290E-002
   GDM::trust : predicted energy change was   -4.067231443836185E-002
   GDM::trust : updated trust radius is        0.108900000000000     
   GDM::search:  On step            1 .  The current bracket is:
       left   : x =  0.0000E+00, e =      -469.1773258623, g = -0.4822E-01
       current: x =  0.5623E+00, e =      -469.1463772515, g =  0.8660E-01
       right  : x =  0.1000E+04, e =      1000.0000000000, g =  0.1000E+04
       next   : x =  0.1313E+00
   GDM::      : max rotation in step is       -9.257327037159414E-002
   ------- Leaving GDM -- hopefully with a step in the right direction! --------
 
   33    -469.1463772515      9.17E-03  Gap = 93.59 eV  Line search: overstep
 
   ------------------- Entering Geometric Direct Minimization ------------------
   GDM::trust : actual energy change is       -7.925734099160309E-003
   GDM::trust : predicted energy change was   -4.067231443836185E-002
   GDM::trust : updated trust radius is        0.108900000000000     
   GDM:         diagonal hessian shift is      0.000000000000000E+000
   GDM::PreWSS: input subspace size is                 19
   GDM::PreWSS: working subspace size set to           18
   GDM::PrEWSS: # of linearly dependent vectors =            0
   GDM::PrEWSS: Max dev from orthonormality =   1.367026283838335E-012
   GDM::BFGS:   lowest Hinv e-value    0.105151629050957     
   GDM::BFGS:   highest Hinv e-value    5.84042852652949     
   GDM::trust : dogleg step length is          0.108900000000000     
   GDM::      : max scaling in EWCs is          2.82842712474619     
   GDM::      : max rotation in step is        0.202106379420107     
   GDM::        grad.step =  -1.084203734028671E-002
   ------- Leaving GDM -- hopefully with a step in the right direction! --------
 
   34    -469.1852515964      6.62E-02  Gap = 93.59 eV  Dog-leg BFGS step
 
   ------------------- Entering Geometric Direct Minimization ------------------
   GDM::trust : actual energy change is        1.026958505633502E-002
   GDM::trust : predicted energy change was   -2.329486911118624E-002
   GDM::trust : updated trust radius is        3.593700000000000E-002
   GDM::search:  On step            1 .  The current bracket is:
       left   : x =  0.0000E+00, e =      -469.1852515964, g = -0.4146E-01
       current: x =  0.2615E+00, e =      -469.1749820113, g =  0.8002E-01
       right  : x =  0.1000E+04, e =      1000.0000000000, g =  0.1000E+04
       next   : x =  0.6715E-01
   GDM::      : max rotation in step is        5.189664894569145E-002
   ------- Leaving GDM -- hopefully with a step in the right direction! --------
 
   35    -469.1749820113      1.10E-02  Gap = 93.59 eV  Line search: overstep
 
   ------------------- Entering Geometric Direct Minimization ------------------
   GDM::trust : actual energy change is       -3.518316936322208E-003
   GDM::trust : predicted energy change was   -2.329486911118624E-002
   GDM::trust : updated trust radius is        3.593700000000000E-002
   GDM:         diagonal hessian shift is      0.000000000000000E+000
   GDM::PreWSS: input subspace size is                 19
   GDM::PreWSS: working subspace size set to           18
   GDM::PrEWSS: # of linearly dependent vectors =            0
   GDM::PrEWSS: Max dev from orthonormality =   7.057895934359237E-013
   GDM::BFGS:   lowest Hinv e-value    8.845867686486293E-002
   GDM::BFGS:   highest Hinv e-value    5.92831606033376     
   GDM::      : max scaling in EWCs is          2.82842712474619     
   GDM::      : max rotation in step is        5.082380334846240E-002
   GDM::        grad.step =  -3.615595736294293E-003
   ------- Leaving GDM -- hopefully with a step in the right direction! --------
 
   36    -469.1887699133      5.03E-02  Gap = 93.59 eV  Descent step
 
   ------------------- Entering Geometric Direct Minimization ------------------
   GDM::trust : actual energy change is       -3.187339070962025E-003
   GDM::trust : predicted energy change was   -5.674337496655507E-003
   GDM::trust : updated trust radius is        0.330000000000000     
   GDM:         diagonal hessian shift is      0.000000000000000E+000
   GDM::PreWSS: input subspace size is                 19
   GDM::PreWSS: working subspace size set to           18
   GDM::PrEWSS: # of linearly dependent vectors =            0
   GDM::PrEWSS: Max dev from orthonormality =   6.520894935135857E-013
   GDM::BFGS:   lowest Hinv e-value    9.648235782944292E-002
   GDM::BFGS:   highest Hinv e-value    5.34101153448585     
   GDM::trust : dogleg step length is          0.330000000000000     
   GDM::      : max scaling in EWCs is          2.82842712474619     
   GDM::      : max rotation in step is        0.638271237374603     
   GDM::        grad.step =  -2.779964941706101E-002
   ------- Leaving GDM -- hopefully with a step in the right direction! --------
 
   37    -469.1919572524      1.25E-01  Gap = 93.59 eV  Dog-leg BFGS step
 
   ------------------- Entering Geometric Direct Minimization ------------------
   GDM::trust : actual energy change is       -2.451053396129055E-002
   GDM::trust : predicted energy change was   -4.298984273759782E-002
   GDM::trust : updated trust radius is        0.330000000000000     
   GDM:         diagonal hessian shift is      0.000000000000000E+000
   GDM::PreWSS: input subspace size is                 19
   GDM::PreWSS: working subspace size set to           18
   GDM::PrEWSS: # of linearly dependent vectors =            0
   GDM::PrEWSS: Max dev from orthonormality =   6.181027911722481E-013
   GDM::BFGS:   lowest Hinv e-value    0.122764716787947     
   GDM::BFGS:   highest Hinv e-value    8.96394269901867     
   GDM::      : max scaling in EWCs is          2.82842712474619     
   GDM::      : max rotation in step is        0.356792023328353     
   GDM::        grad.step =  -4.384860589159349E-002
   ------- Leaving GDM -- hopefully with a step in the right direction! --------
 
   38    -469.2164677864      2.07E-01  Gap = 93.59 eV  Normal BFGS step
 
   ------------------- Entering Geometric Direct Minimization ------------------
   GDM::trust : actual energy change is        2.067075694083087E-002
   GDM::trust : predicted energy change was   -6.577290883739020E-002
   GDM::trust : updated trust radius is        0.108900000000000     
   GDM::search:  On step            1 .  The current bracket is:
       left   : x =  0.0000E+00, e =      -469.2164677864, g = -0.7492E-01
       current: x =  0.5853E+00, e =      -469.1957970294, g =  0.1472E+00
       right  : x =  0.1000E+04, e =      1000.0000000000, g =  0.1000E+04
       next   : x =  0.1989E+00
   GDM::      : max rotation in step is        0.121241377234485     
   ------- Leaving GDM -- hopefully with a step in the right direction! --------
 
   39    -469.1957970294      2.56E-02  Gap = 93.59 eV  Line search: overstep
 
   ------------------- Entering Geometric Direct Minimization ------------------
   GDM::trust : actual energy change is       -2.184647526087247E-002
   GDM::trust : predicted energy change was   -6.577290883739020E-002
   GDM::trust : updated trust radius is        0.108900000000000     
   GDM:         diagonal hessian shift is      0.000000000000000E+000
   GDM::PreWSS: input subspace size is                 19
   GDM::PreWSS: working subspace size set to           18
   GDM::PrEWSS: # of linearly dependent vectors =            0
   GDM::PrEWSS: Max dev from orthonormality =   3.135165738132883E-013
   GDM::BFGS:   lowest Hinv e-value    9.619404892867048E-002
   GDM::BFGS:   highest Hinv e-value    8.94048235259755     
   GDM::      : max scaling in EWCs is          2.82842712474619     
   GDM::      : max rotation in step is        0.169514525721512     
   GDM::        grad.step =  -2.835144715302012E-002
   ------- Leaving GDM -- hopefully with a step in the right direction! --------
 
   40    -469.2383142616      1.43E-01  Gap = 93.59 eV  Descent step
 
   ------------------- Entering Geometric Direct Minimization ------------------
   GDM::trust : actual energy change is       -2.173828435331870E-002
   GDM::trust : predicted energy change was   -2.354053998623917E-002
   GDM::trust : updated trust radius is        0.330000000000000     
   GDM:         diagonal hessian shift is      0.000000000000000E+000
   GDM::PreWSS: input subspace size is                 19
   GDM::PreWSS: working subspace size set to           18
   GDM::PrEWSS: # of linearly dependent vectors =            0
   GDM::PrEWSS: Max dev from orthonormality =   4.492552163615215E-013
   GDM::BFGS:   lowest Hinv e-value    8.211063884413380E-002
   GDM::BFGS:   highest Hinv e-value    8.34474509294360     
   GDM::trust : dogleg step length is          0.330000000000000     
   GDM::      : max scaling in EWCs is          2.82842712474619     
   GDM::      : max rotation in step is       -0.549311525109168     
   GDM::        grad.step =  -3.742021158484382E-002
   ------- Leaving GDM -- hopefully with a step in the right direction! --------
 
   41    -469.2600525460      1.42E-01  Gap = -148822.66 eV  Dog-leg BFGS step
 
   ------------------- Entering Geometric Direct Minimization ------------------
   GDM::trust : actual energy change is        5.807252893396253E-002
   GDM::trust : predicted energy change was   -5.666719731612523E-002
   GDM::trust : updated trust radius is        0.108900000000000     
   GDM::search:  On step            1 .  The current bracket is:
       left   : x =  0.0000E+00, e =      -469.2600525460, g = -0.4967E-01
       current: x =  0.7534E+00, e =      -469.2019800170, g =  0.1019E+00
       right  : x =  0.1000E+04, e =      1000.0000000000, g =  0.1000E+04
       next   : x =  0.1476E+00
   GDM::      : max rotation in step is       -0.107627833193928     
   ------- Leaving GDM -- hopefully with a step in the right direction! --------
 
   42    -469.2019800170      1.09E-01  Gap = -148822.66 eV  Line search: overstep
 
   ------------------- Entering Geometric Direct Minimization ------------------
   GDM::trust : actual energy change is       -9.120498801451049E-003
   GDM::trust : predicted energy change was   -5.666719731612523E-002
   GDM::trust : updated trust radius is        0.108900000000000     
   GDM:         diagonal hessian shift is      0.000000000000000E+000
   GDM::PreWSS: input subspace size is                 19
   GDM::PreWSS: working subspace size set to           18
   GDM::PrEWSS: # of linearly dependent vectors =            0
   GDM::PrEWSS: Max dev from orthonormality =   3.006067617050689E-013
   GDM::BFGS:   lowest Hinv e-value    8.536098259823012E-002
   GDM::BFGS:   highest Hinv e-value    5.20077389918729     
   GDM::      : max scaling in EWCs is          2.82842712474619     
   GDM::      : max rotation in step is       -0.107933976324118     
   GDM::        grad.step =  -3.213316597361833E-002
   ------- Leaving GDM -- hopefully with a step in the right direction! --------
 
   43    -469.2691730448      1.20E-01  Gap = -148822.66 eV  Descent step
 
   ------------------- Entering Geometric Direct Minimization ------------------
   GDM::trust : actual energy change is        5.533610664770094E-003
   GDM::trust : predicted energy change was   -5.513692815760621E-002
   GDM::trust : updated trust radius is        0.108900000000000     
   GDM::search:  On step            1 .  The current bracket is:
       left   : x =  0.0000E+00, e =      -469.2691730448, g = -0.1639E+00
       current: x =  0.1961E+00, e =      -469.2636394341, g =  0.1927E+00
       right  : x =  0.1000E+04, e =      1000.0000000000, g =  0.1000E+04
       next   : x =  0.8365E-01
   GDM::      : max rotation in step is       -4.603872012611718E-002
   ------- Leaving GDM -- hopefully with a step in the right direction! --------
 
   44    -469.2636394341      1.61E-02  Gap = -148822.66 eV  Line search: overstep
 
   ------------------- Entering Geometric Direct Minimization ------------------
   GDM::trust : actual energy change is       -1.482895023468700E-002
   GDM::trust : predicted energy change was   -5.513692815760621E-002
   GDM::trust : updated trust radius is        0.108900000000000     
   GDM:         diagonal hessian shift is      0.000000000000000E+000
   GDM::PreWSS: input subspace size is                 19
   GDM::PreWSS: working subspace size set to           18
   GDM::PrEWSS: # of linearly dependent vectors =            0
   GDM::PrEWSS: Max dev from orthonormality =   5.908953881750278E-013
   GDM::BFGS:   lowest Hinv e-value    0.128127271156308     
   GDM::BFGS:   highest Hinv e-value    4.64306989923276     
   GDM::      : max scaling in EWCs is          2.82842712474619     
   GDM::      : max rotation in step is        0.192856792687092     
   GDM::        grad.step =  -1.651503622628584E-002
   ------- Leaving GDM -- hopefully with a step in the right direction! --------
 
   45    -469.2840019950      9.50E-02  Gap = -148822.66 eV  Descent step
 
   ------------------- Entering Geometric Direct Minimization ------------------
   GDM::trust : actual energy change is       -4.724937262324147E-003
   GDM::trust : predicted energy change was   -3.150794052623387E-002
   GDM::trust : updated trust radius is        0.330000000000000     
   GDM:         diagonal hessian shift is      0.000000000000000E+000
   GDM::PreWSS: input subspace size is                 19
   GDM::PreWSS: working subspace size set to           18
   GDM::PrEWSS: # of linearly dependent vectors =            0
   GDM::PrEWSS: Max dev from orthonormality =   3.318560704013152E-013
   GDM::BFGS:   lowest Hinv e-value    9.098415218843244E-002
   GDM::BFGS:   highest Hinv e-value    5.64619027946729     
   GDM::      : max scaling in EWCs is          2.82842712474619     
   GDM::      : max rotation in step is       -0.106002905522445     
   GDM::        grad.step =  -1.944441124299215E-002
   ------- Leaving GDM -- hopefully with a step in the right direction! --------
 
   46    -469.2887269323      2.83E-01  Gap = -148822.66 eV  Normal BFGS step
 
   ------------------- Entering Geometric Direct Minimization ------------------
   GDM::trust : actual energy change is       -1.046143526423293E-002
   GDM::trust : predicted energy change was   -2.916661686448823E-002
   GDM::trust : updated trust radius is        0.330000000000000     
   GDM:         diagonal hessian shift is      0.000000000000000E+000
   GDM::PreWSS: input subspace size is                 19
   GDM::PreWSS: working subspace size set to           18
   GDM::PrEWSS: # of linearly dependent vectors =            0
   GDM::PrEWSS: Max dev from orthonormality =   2.187347525328676E-013
   GDM::BFGS:   lowest Hinv e-value    0.127071123820992     
   GDM::BFGS:   highest Hinv e-value    4.34615170246668     
   GDM::      : max scaling in EWCs is          2.82842712474619     
   GDM::      : max rotation in step is        0.116352178696429     
   GDM::        grad.step =  -1.605185417150613E-002
   ------- Leaving GDM -- hopefully with a step in the right direction! --------
 
   47    -469.2991883675      5.60E-02  Gap = -148822.66 eV  Normal BFGS step
 
   ------------------- Entering Geometric Direct Minimization ------------------
   GDM::trust : actual energy change is       -1.343248183786727E-003
   GDM::trust : predicted energy change was   -2.407778125725920E-002
   GDM::trust : updated trust radius is        0.330000000000000     
   GDM:         diagonal hessian shift is      0.000000000000000E+000
   GDM::PreWSS: input subspace size is                 19
   GDM::PreWSS: working subspace size set to           18
   GDM::PrEWSS: # of linearly dependent vectors =            0
   GDM::PrEWSS: Max dev from orthonormality =   5.045720785634700E-013
   GDM::BFGS:   lowest Hinv e-value    0.140998194541592     
   GDM::BFGS:   highest Hinv e-value    5.14774706639933     
   GDM::      : max scaling in EWCs is          2.82842712474619     
   GDM::      : max rotation in step is       -6.673230131248137E-002
   GDM::        grad.step =  -1.135704016260910E-002
   ------- Leaving GDM -- hopefully with a step in the right direction! --------
 
   48    -469.3005316157      9.21E-02  Gap = -148822.66 eV  Normal BFGS step
 
   ------------------- Entering Geometric Direct Minimization ------------------
   GDM::trust : actual energy change is       -9.677716833493832E-003
   GDM::trust : predicted energy change was   -1.703556024391364E-002
   GDM::trust : updated trust radius is        0.330000000000000     
   GDM:         diagonal hessian shift is      0.000000000000000E+000
   GDM::PreWSS: input subspace size is                 19
   GDM::PreWSS: working subspace size set to           18
   GDM::PrEWSS: # of linearly dependent vectors =            0
   GDM::PrEWSS: Max dev from orthonormality =   2.112849825652852E-012
   GDM::BFGS:   lowest Hinv e-value    0.128217074173503     
   GDM::BFGS:   highest Hinv e-value    4.16690929877321     
   GDM::      : max scaling in EWCs is          2.82842712474619     
   GDM::      : max rotation in step is       -0.137820557951725     
   GDM::        grad.step =  -3.641486226000296E-003
   ------- Leaving GDM -- hopefully with a step in the right direction! --------
 
   49    -469.3102093325      3.11E-02  Gap = -148822.66 eV  Normal BFGS step
 
   ------------------- Entering Geometric Direct Minimization ------------------
   GDM::trust : actual energy change is        1.930270071284212E-003
   GDM::trust : predicted energy change was   -5.462229339000443E-003
   GDM::trust : updated trust radius is        0.108900000000000     
   GDM::search:  On step            1 .  The current bracket is:
       left   : x =  0.0000E+00, e =      -469.3102093325, g = -0.1842E-01
       current: x =  0.1977E+00, e =      -469.3082790625, g =  0.2767E-01
       right  : x =  0.1000E+04, e =      1000.0000000000, g =  0.1000E+04
       next   : x =  0.6460E-01
   GDM::      : max rotation in step is       -4.503711546801493E-002
   ------- Leaving GDM -- hopefully with a step in the right direction! --------
 
   50    -469.3082790625      4.15E-03  Gap = -148822.66 eV  Line search: overstep
 
   ------------------- Entering Geometric Direct Minimization ------------------
   GDM::trust : actual energy change is       -1.381278088103954E-003
   GDM::trust : predicted energy change was   -5.462229339000443E-003
   GDM::trust : updated trust radius is        0.108900000000000     
   GDM:         diagonal hessian shift is      0.000000000000000E+000
   GDM::PreWSS: input subspace size is                 19
   GDM::PreWSS: working subspace size set to           18
   GDM::PrEWSS: # of linearly dependent vectors =            0
   GDM::PrEWSS: Max dev from orthonormality =   9.020180435914682E-013
   GDM::BFGS:   lowest Hinv e-value    0.126563899261215     
   GDM::BFGS:   highest Hinv e-value    2.25818744728493     
   GDM::      : max scaling in EWCs is          2.82842712474619     
   GDM::      : max rotation in step is        8.115370778673830E-002
   GDM::        grad.step =  -1.790586643451606E-003
   ------- Leaving GDM -- hopefully with a step in the right direction! --------
 
   51    -469.3115906106      2.33E-02  Gap = -148822.66 eV  Normal BFGS step
 
   ------------------- Entering Geometric Direct Minimization ------------------
   GDM::trust : actual energy change is       -4.157514807729967E-004
   GDM::trust : predicted energy change was   -2.685879965177411E-003
   GDM::trust : updated trust radius is        0.330000000000000     
   GDM:         diagonal hessian shift is      0.000000000000000E+000
   GDM::PreWSS: input subspace size is                 19
   GDM::PreWSS: working subspace size set to           18
   GDM::PrEWSS: # of linearly dependent vectors =            0
   GDM::PrEWSS: Max dev from orthonormality =   6.341593916658894E-013
   GDM::BFGS:   lowest Hinv e-value    0.132015533691508     
   GDM::BFGS:   highest Hinv e-value    2.48934005676528     
   GDM::      : max scaling in EWCs is          2.82842712474619     
   GDM::      : max rotation in step is        3.214944884142624E-002
   GDM::        grad.step =  -1.489244244239192E-003
   ------- Leaving GDM -- hopefully with a step in the right direction! --------
 
   52    -469.3120063621      2.39E-02  Gap = -148822.66 eV  Normal BFGS step
 
   ------------------- Entering Geometric Direct Minimization ------------------
   GDM::trust : actual energy change is       -1.079255599734097E-003
   GDM::trust : predicted energy change was   -2.233866366358790E-003
   GDM::trust : updated trust radius is        0.330000000000000     
   GDM:         diagonal hessian shift is      0.000000000000000E+000
   GDM::PreWSS: input subspace size is                 19
   GDM::PreWSS: working subspace size set to           18
   GDM::PrEWSS: # of linearly dependent vectors =            0
   GDM::PrEWSS: Max dev from orthonormality =   5.715341394596507E-013
   GDM::BFGS:   lowest Hinv e-value    0.122895419336551     
   GDM::BFGS:   highest Hinv e-value    2.36534149020840     
   GDM::      : max scaling in EWCs is          2.82842712474619     
   GDM::      : max rotation in step is        5.418209492849337E-002
   GDM::        grad.step =  -2.362620359824474E-003
   ------- Leaving GDM -- hopefully with a step in the right direction! --------
 
   53    -469.3130856177      3.91E-02  Gap = -148822.66 eV  Normal BFGS step
 
   ------------------- Entering Geometric Direct Minimization ------------------
   GDM::trust : actual energy change is        3.816830576624852E-003
   GDM::trust : predicted energy change was   -3.543930539736712E-003
   GDM::trust : updated trust radius is        0.108900000000000     
   GDM::search:  On step            1 .  The current bracket is:
       left   : x =  0.0000E+00, e =      -469.3130856177, g = -0.2420E-01
       current: x =  0.9761E-01, e =      -469.3092687871, g =  0.6306E-01
       right  : x =  0.1000E+04, e =      1000.0000000000, g =  0.1000E+04
       next   : x =  0.1866E-01
   GDM::      : max rotation in step is        1.035785557102874E-002
   ------- Leaving GDM -- hopefully with a step in the right direction! --------
 
   54    -469.3092687871      7.20E-03  Gap = 93.59 eV  Line search: overstep
 
   ------------------- Entering Geometric Direct Minimization ------------------
   GDM::trust : actual energy change is       -5.905919672386517E-004
   GDM::trust : predicted energy change was   -3.543930539736712E-003
   GDM::trust : updated trust radius is        0.108900000000000     
   GDM:         diagonal hessian shift is      0.000000000000000E+000
   GDM::PreWSS: input subspace size is                 19
   GDM::PreWSS: working subspace size set to           18
   GDM::PrEWSS: # of linearly dependent vectors =            0
   GDM::PrEWSS: Max dev from orthonormality =   6.151815168387031E-013
   GDM::BFGS:   lowest Hinv e-value    0.123382552279885     
   GDM::BFGS:   highest Hinv e-value    2.24834583392283     
   GDM::      : max scaling in EWCs is          2.82842712474619     
   GDM::      : max rotation in step is        5.874381429124808E-002
   GDM::        grad.step =  -6.825496937127709E-004
   ------- Leaving GDM -- hopefully with a step in the right direction! --------
 
   55    -469.3136762097      1.49E-02  Gap = 93.59 eV  Normal BFGS step
 
   ------------------- Entering Geometric Direct Minimization ------------------
   GDM::trust : actual energy change is       -8.078394694734925E-004
   GDM::trust : predicted energy change was   -1.023824540569156E-003
   GDM::trust : updated trust radius is        0.330000000000000     
   GDM:         diagonal hessian shift is      0.000000000000000E+000
   GDM::PreWSS: input subspace size is                 19
   GDM::PreWSS: working subspace size set to           18
   GDM::PrEWSS: # of linearly dependent vectors =            0
   GDM::PrEWSS: Max dev from orthonormality =   2.810800203700836E-012
   GDM::BFGS:   lowest Hinv e-value    0.116871554446211     
   GDM::BFGS:   highest Hinv e-value    3.67025870915585     
   GDM::      : max scaling in EWCs is          2.82842712474619     
   GDM::      : max rotation in step is        0.100580231587317     
   GDM::        grad.step =  -4.560899303394310E-004
   ------- Leaving GDM -- hopefully with a step in the right direction! --------
 
   56    -469.3144840492      1.16E-02  Gap = 93.59 eV  Normal BFGS step
 
   ------------------- Entering Geometric Direct Minimization ------------------
   GDM::trust : actual energy change is       -2.492288008397736E-004
   GDM::trust : predicted energy change was   -6.841348955091469E-004
   GDM::trust : updated trust radius is        0.330000000000000     
   GDM:         diagonal hessian shift is      0.000000000000000E+000
   GDM::PreWSS: input subspace size is                 19
   GDM::PreWSS: working subspace size set to           18
   GDM::PrEWSS: # of linearly dependent vectors =            0
   GDM::PrEWSS: Max dev from orthonormality =   2.117073877316855E-012
   GDM::BFGS:   lowest Hinv e-value    0.117328628896250     
   GDM::BFGS:   highest Hinv e-value    3.84222083429837     
   GDM::      : max scaling in EWCs is          2.82842712474619     
   GDM::      : max rotation in step is        1.010463399133475E-002
   GDM::        grad.step =  -3.620347622535794E-004
   ------- Leaving GDM -- hopefully with a step in the right direction! --------
 
   57    -469.3147332780      1.32E-02  Gap = 93.59 eV  Normal BFGS step
 
   ------------------- Entering Geometric Direct Minimization ------------------
   GDM::trust : actual energy change is       -4.059811135448399E-004
   GDM::trust : predicted energy change was   -5.430521433803690E-004
   GDM::trust : updated trust radius is        0.330000000000000     
   GDM:         diagonal hessian shift is      0.000000000000000E+000
   GDM::PreWSS: input subspace size is                 19
   GDM::PreWSS: working subspace size set to           18
   GDM::PrEWSS: # of linearly dependent vectors =            0
   GDM::PrEWSS: Max dev from orthonormality =   3.327563918853471E-012
   GDM::BFGS:   lowest Hinv e-value    0.121092999242773     
   GDM::BFGS:   highest Hinv e-value    4.13586100424397     
   GDM::      : max scaling in EWCs is          2.82842712474619     
   GDM::      : max rotation in step is        2.771523840808334E-002
   GDM::        grad.step =  -1.215555665615183E-004
   ------- Leaving GDM -- hopefully with a step in the right direction! --------
 
   58    -469.3151392591      4.40E-03  Gap = 93.59 eV  Normal BFGS step
 
   ------------------- Entering Geometric Direct Minimization ------------------
   GDM::trust : actual energy change is       -8.535541724086215E-005
   GDM::trust : predicted energy change was   -1.823333498422773E-004
   GDM::trust : updated trust radius is        0.330000000000000     
   GDM:         diagonal hessian shift is      0.000000000000000E+000
   GDM::PreWSS: input subspace size is                 19
   GDM::PreWSS: working subspace size set to           18
   GDM::PrEWSS: # of linearly dependent vectors =            0
   GDM::PrEWSS: Max dev from orthonormality =   1.611646927024424E-011
   GDM::BFGS:   lowest Hinv e-value    0.105066817999935     
   GDM::BFGS:   highest Hinv e-value    5.90486695526037     
   GDM::      : max scaling in EWCs is          2.82842712474619     
   GDM::      : max rotation in step is        3.276533398499243E-002
   GDM::        grad.step =  -1.257257457012825E-004
   ------- Leaving GDM -- hopefully with a step in the right direction! --------
 
   59    -469.3152246145      8.79E-03  Gap = 93.59 eV  Normal BFGS step
 
   ------------------- Entering Geometric Direct Minimization ------------------
   GDM::trust : actual energy change is       -4.509724425361128E-005
   GDM::trust : predicted energy change was   -1.885886185519238E-004
   GDM::trust : updated trust radius is        0.330000000000000     
   GDM:         diagonal hessian shift is      0.000000000000000E+000
   GDM::PreWSS: input subspace size is                 19
   GDM::PreWSS: working subspace size set to           18
   GDM::PrEWSS: # of linearly dependent vectors =            0
   GDM::PrEWSS: Max dev from orthonormality =   9.022518843160299E-012
   GDM::BFGS:   lowest Hinv e-value    9.005345911300700E-002
   GDM::BFGS:   highest Hinv e-value    4.97947747271166     
   GDM::      : max scaling in EWCs is          2.82842712474619     
   GDM::      : max rotation in step is       -1.437426888831145E-002
   GDM::        grad.step =  -7.851009026442462E-005
   ------- Leaving GDM -- hopefully with a step in the right direction! --------
 
   60    -469.3152697117      7.98E-03  Gap = 93.59 eV  Normal BFGS step
 
   ------------------- Entering Geometric Direct Minimization ------------------
   GDM::trust : actual energy change is       -9.486237587452706E-005
   GDM::trust : predicted energy change was   -1.177651353966369E-004
   GDM::trust : updated trust radius is        0.330000000000000     
   GDM:         diagonal hessian shift is      0.000000000000000E+000
   GDM::PreWSS: input subspace size is                 19
   GDM::PreWSS: working subspace size set to           18
   GDM::PrEWSS: # of linearly dependent vectors =            0
   GDM::PrEWSS: Max dev from orthonormality =   3.602326770213438E-012
   GDM::BFGS:   lowest Hinv e-value    8.534481278953172E-002
   GDM::BFGS:   highest Hinv e-value    4.71077429464024     
   GDM::      : max scaling in EWCs is          2.82842712474619     
   GDM::      : max rotation in step is       -3.102840338749677E-002
   GDM::        grad.step =  -7.531009072659798E-005
   ------- Leaving GDM -- hopefully with a step in the right direction! --------
 
   61    -469.3153645741      5.22E-03  Gap = 93.59 eV  Normal BFGS step
 
   ------------------- Entering Geometric Direct Minimization ------------------
   GDM::trust : actual energy change is       -1.314798148541740E-004
   GDM::trust : predicted energy change was   -1.129651360898970E-004
   GDM::trust : updated trust radius is        0.330000000000000     
   GDM:         diagonal hessian shift is      0.000000000000000E+000
   GDM::PreWSS: input subspace size is                 19
   GDM::PreWSS: working subspace size set to           18
   GDM::PrEWSS: # of linearly dependent vectors =            0
   GDM::PrEWSS: Max dev from orthonormality =   7.545287311616633E-012
   GDM::BFGS:   lowest Hinv e-value    7.905019756020103E-002
   GDM::BFGS:   highest Hinv e-value    38.7992453927150     
   GDM::      : max scaling in EWCs is          2.82842712474619     
   GDM::      : max rotation in step is       -0.552629256575116     
   GDM::        grad.step =  -1.131356406053218E-003
   ------- Leaving GDM -- hopefully with a step in the right direction! --------
 
   62    -469.3154960539      6.77E-03  Gap = 93.59 eV  Normal BFGS step
 
   ------------------- Entering Geometric Direct Minimization ------------------
   GDM::trust : actual energy change is        3.683536152215083E-002
   GDM::trust : predicted energy change was   -1.697034609079827E-003
   GDM::trust : updated trust radius is        0.108900000000000     
   GDM::search:  On step            1 .  The current bracket is:
       left   : x =  0.0000E+00, e =      -469.3154960539, g = -0.1986E-02
       current: x =  0.5697E+00, e =      -469.2786606924, g =  0.1109E+00
       right  : x =  0.1000E+04, e =      1000.0000000000, g =  0.1000E+04
       next   : x =  0.5697E-01
   GDM::      : max rotation in step is       -5.526292565751163E-002
   ------- Leaving GDM -- hopefully with a step in the right direction! --------
 
   63    -469.2786606924      5.00E-02  Gap = 93.59 eV  Line search: overstep
 
   ------------------- Entering Geometric Direct Minimization ------------------
   GDM::trust : actual energy change is       -2.195684814978449E-004
   GDM::trust : predicted energy change was   -1.697034609079827E-003
   GDM::trust : updated trust radius is        0.108900000000000     
   GDM:         diagonal hessian shift is      0.000000000000000E+000
   GDM::PreWSS: input subspace size is                 19
   GDM::PreWSS: working subspace size set to           18
   GDM::PrEWSS: # of linearly dependent vectors =            0
   GDM::PrEWSS: Max dev from orthonormality =   3.957389277386980E-011
   GDM::BFGS:   lowest Hinv e-value    5.321228699332677E-002
   GDM::BFGS:   highest Hinv e-value    95.7027864024839     
   GDM::trust : dogleg step length is          0.108900000000000     
   GDM::      : max scaling in EWCs is          2.82842712474619     
   GDM::      : max rotation in step is       -0.289127128735754     
   GDM::        grad.step =  -8.516198566568801E-004
   ------- Leaving GDM -- hopefully with a step in the right direction! --------
 
   64    -469.3157156224      7.00E-03  Gap = 93.59 eV  Dog-leg BFGS step
 
   ------------------- Entering Geometric Direct Minimization ------------------
   GDM::trust : actual energy change is        3.390122779308058E-003
   GDM::trust : predicted energy change was   -2.929169098451990E-003
   GDM::trust : updated trust radius is        3.593700000000000E-002
   GDM::search:  On step            1 .  The current bracket is:
       left   : x =  0.0000E+00, e =      -469.3157156224, g = -0.2832E-02
       current: x =  0.3007E+00, e =      -469.3123254996, g =  0.2514E-01
       right  : x =  0.1000E+04, e =      1000.0000000000, g =  0.1000E+04
       next   : x =  0.3019E-01
   GDM::      : max rotation in step is       -2.902420361879699E-002
   ------- Leaving GDM -- hopefully with a step in the right direction! --------
 
   65    -469.3123254996      1.34E-02  Gap = 93.59 eV  Line search: overstep
 
   ------------------- Entering Geometric Direct Minimization ------------------
   GDM::trust : actual energy change is       -1.663508678575454E-004
   GDM::trust : predicted energy change was   -2.929169098451990E-003
   GDM::trust : updated trust radius is        3.593700000000000E-002
   GDM::search:  On step            2 .  The current bracket is:
       left   : x =  0.0000E+00, e =      -469.3157156224, g = -0.2832E-02
       current: x =  0.3019E-01, e =      -469.3158819733, g = -0.2626E-02
       right  : x =  0.3007E+00, e =         0.0000000000, g =  0.0000E+00
       next   : x =  0.2737E+00
   GDM::      : max rotation in step is       -0.263116836224058     
   ------- Leaving GDM -- hopefully with a step in the right direction! --------
 
   66    -469.3158819733      1.87E-03  Gap = 0.00 eV  Line search: understep
 
   ------------------- Entering Geometric Direct Minimization ------------------
   GDM::trust : actual energy change is        2.180521736192986E-003
   GDM::trust : predicted energy change was   -2.929169098451990E-003
   GDM::trust : updated trust radius is        1.185921000000000E-002
   GDM::search:  On step            3 .  The current bracket is:
       left   : x =  0.3019E-01, e =      -469.3158819733, g = -0.2626E-02
       current: x =  0.2737E+00, e =      -469.3135351007, g =  0.1967E-01
       right  : x =  0.3007E+00, e =         0.0000000000, g =  0.0000E+00
       next   : x =  0.5454E-01
   GDM::      : max rotation in step is       -5.243346687932313E-002
   ------- Leaving GDM -- hopefully with a step in the right direction! --------
 
   67    -469.3135351007      1.17E-02  Gap = 0.00 eV  Line search: overstep
 
   ------------------- Entering Geometric Direct Minimization ------------------
   GDM::trust : actual energy change is       -2.848775945381021E-004
   GDM::trust : predicted energy change was   -2.929169098451990E-003
   GDM::trust : updated trust radius is        1.185921000000000E-002
   GDM:         diagonal hessian shift is      0.000000000000000E+000
   GDM::PreWSS: input subspace size is                 19
   GDM::PreWSS: working subspace size set to           18
   GDM::PrEWSS: # of linearly dependent vectors =            0
[...]
   GDM::BFGS:   lowest Hinv e-value    0.218534614571138     
   GDM::BFGS:   highest Hinv e-value    1.22221876938207     
   GDM::      : max scaling in EWCs is          1.74427404477098     
   GDM::      : max rotation in step is        8.580923740408765E-007
   GDM::        grad.step =  -3.445068713546205E-011
   ------- Leaving GDM -- hopefully with a step in the right direction! --------
 
   11    -469.4592384561      2.36E-06  Gap = -6.22 eV  Normal BFGS step
 
   ------------------- Entering Geometric Direct Minimization ------------------
   GDM::trust : actual energy change is       -2.063416104647331E-011
   GDM::trust : predicted energy change was   -5.167603070319309E-011
   GDM::trust : updated trust radius is        0.330000000000000     
   GDM:         diagonal hessian shift is      0.000000000000000E+000
   GDM::PreWSS: input subspace size is                 10
   GDM::PreWSS: working subspace size set to           10
   GDM::PrEWSS: # of linearly dependent vectors =            9
   GDM::PrEWSS: Max dev from orthonormality =   2.612909888455306E-013
   GDM::BFGS:   lowest Hinv e-value    0.229782294534037     
   GDM::BFGS:   highest Hinv e-value    1.24358013688311     
   GDM::      : max scaling in EWCs is          1.74428538245307     
   GDM::      : max rotation in step is       -1.057640823992040E-006
   GDM::        grad.step =  -1.820148758994193E-011
   ------- Leaving GDM -- hopefully with a step in the right direction! --------
 
   12    -469.4592384561      1.64E-06  Gap = -6.22 eV  Normal BFGS step
 
   ------------------- Entering Geometric Direct Minimization ------------------
   GDM::trust : actual energy change is        7.446487870765850E-012
   GDM::trust : predicted energy change was   -2.730223138491290E-011
   GDM::trust : updated trust radius is        0.108900000000000     
   GDM::WARNING energy changes are now smaller than effective accuracy.
   GDM::        calculation will continue, but THRESH should be increased
   GDM::        or SCF_CONVERGENCE decreased.
   GDM::        effective_thresh =   3.200000000000000E-010
   GDM:         diagonal hessian shift is      0.000000000000000E+000
   GDM::PreWSS: input subspace size is                 11
   GDM::PreWSS: working subspace size set to           11
   GDM::PrEWSS: # of linearly dependent vectors =           10
   GDM::PrEWSS: Max dev from orthonormality =   4.930778008116476E-013
   GDM::BFGS:   lowest Hinv e-value    0.226464163940357     
   GDM::BFGS:   highest Hinv e-value    1.22188259113410     
   GDM::      : max scaling in EWCs is          1.74428126068515     
   GDM::      : max rotation in step is       -5.881133563774644E-007
   GDM::        grad.step =  -1.753220584426568E-011
   ------- Leaving GDM -- hopefully with a step in the right direction! --------
 
   13    -469.4592384561      1.82E-06  Gap = -6.22 eV  Normal BFGS step
 
   ------------------- Entering Geometric Direct Minimization ------------------
   GDM::trust : actual energy change is       -1.887201506178826E-011
   GDM::trust : predicted energy change was   -2.629830876639852E-011
   GDM::trust : updated trust radius is        0.330000000000000     
   GDM:         diagonal hessian shift is      0.000000000000000E+000
   GDM::PreWSS: input subspace size is                 12
   GDM::PreWSS: working subspace size set to           12
   GDM::PrEWSS: # of linearly dependent vectors =           11
   GDM::PrEWSS: Max dev from orthonormality =   2.348185881850817E-012
   GDM::BFGS:   lowest Hinv e-value    0.227082681686759     
   GDM::BFGS:   highest Hinv e-value    1.22302294550439     
   GDM::      : max scaling in EWCs is          1.74428184227781     
   GDM::      : max rotation in step is       -2.279941984302615E-007
   GDM::        grad.step =  -5.211179837943160E-013
   ------- Leaving GDM -- hopefully with a step in the right direction! --------
 
   14    -469.4592384561      1.83E-07  Gap = -6.22 eV  Normal BFGS step
 
   ------------------- Entering Geometric Direct Minimization ------------------
   GDM::trust : actual energy change is        2.955857780762017E-012
   GDM::trust : predicted energy change was   -7.816769756914741E-013
   GDM::trust : updated trust radius is        0.108900000000000     
   GDM::WARNING energy changes are now smaller than effective accuracy.
   GDM::        calculation will continue, but THRESH should be increased
   GDM::        or SCF_CONVERGENCE decreased.
   GDM::        effective_thresh =   3.200000000000000E-010
   GDM:         diagonal hessian shift is      0.000000000000000E+000
   GDM::PreWSS: input subspace size is                 13
   GDM::PreWSS: working subspace size set to           13
   GDM::PrEWSS: # of linearly dependent vectors =           12
   GDM::PrEWSS: Max dev from orthonormality =   3.589571348494580E-012
   GDM::BFGS:   lowest Hinv e-value    0.225917919991319     
   GDM::BFGS:   highest Hinv e-value    1.24344137882908     
   GDM::      : max scaling in EWCs is          1.74428230961600     
   GDM::      : max rotation in step is        1.905228999491589E-007
   GDM::        grad.step =  -9.001761500862690E-013
   ------- Leaving GDM -- hopefully with a step in the right direction! --------
 
   15    -469.4592384561      5.89E-07  Gap = -6.22 eV  Normal BFGS step
 
   ------------------- Entering Geometric Direct Minimization ------------------
   GDM::trust : actual energy change is       -1.364242052659392E-012
   GDM::trust : predicted energy change was   -1.350264225129403E-012
   GDM::trust : updated trust radius is        0.330000000000000     
   GDM:         diagonal hessian shift is      0.000000000000000E+000
   GDM::PreWSS: input subspace size is                 14
   GDM::PreWSS: working subspace size set to           14
   GDM::PrEWSS: # of linearly dependent vectors =           13
   GDM::PrEWSS: Max dev from orthonormality =   2.942254773152797E-011
   GDM::BFGS:   lowest Hinv e-value    0.227656625423580     
   GDM::BFGS:   highest Hinv e-value    1.23800242043135     
   GDM::      : max scaling in EWCs is          1.74428210899513     
   GDM::      : max rotation in step is        3.147623981299292E-008
   GDM::        grad.step =  -6.628043970721710E-014
   ------- Leaving GDM -- hopefully with a step in the right direction! --------
 
   16    -469.4592384561      5.55E-08  Gap = -6.22 eV  Normal BFGS step
 
   ------------------- Entering Geometric Direct Minimization ------------------
   GDM::trust : actual energy change is       -1.818989403545856E-012
   GDM::trust : predicted energy change was   -9.942065956082565E-014
   GDM::trust : updated trust radius is        0.330000000000000     
   GDM:         diagonal hessian shift is      0.000000000000000E+000
   GDM::PreWSS: input subspace size is                 15
   GDM::PreWSS: working subspace size set to           15
   GDM::PrEWSS: # of linearly dependent vectors =           14
   GDM::PrEWSS: Max dev from orthonormality =   1.199407023352861E-010
   GDM::BFGS:   lowest Hinv e-value    0.224607222598565     
   GDM::BFGS:   highest Hinv e-value    1.21266130270862     
   GDM::      : max scaling in EWCs is          1.74428209760434     
   GDM::      : max rotation in step is        1.450393872178759E-008
   GDM::        grad.step =  -2.238387612602772E-014
   ------- Leaving GDM -- hopefully with a step in the right direction! --------
 
   17    -469.4592384561      2.87E-08  Gap = -6.22 eV  Normal BFGS step
 
   ------------------- Entering Geometric Direct Minimization ------------------
   GDM::trust : actual energy change is        1.989519660128281E-012
   GDM::trust : predicted energy change was   -3.357581418904158E-014
   GDM::trust : updated trust radius is        0.108900000000000     
   GDM::WARNING energy changes are now smaller than effective accuracy.
   GDM::        calculation will continue, but THRESH should be increased
   GDM::        or SCF_CONVERGENCE decreased.
   GDM::        effective_thresh =   3.200000000000000E-010
   GDM:         diagonal hessian shift is      0.000000000000000E+000
   GDM::PreWSS: input subspace size is                 16
   GDM::PreWSS: working subspace size set to           16
   GDM::PrEWSS: # of linearly dependent vectors =           15
   GDM::PrEWSS: Max dev from orthonormality =   1.725695766841007E-010
   GDM::BFGS:   lowest Hinv e-value    0.224468698969902     
   GDM::BFGS:   highest Hinv e-value    1.21518504511276     
   GDM::      : max scaling in EWCs is          1.74428209115269     
   GDM::      : max rotation in step is       -4.691257352308730E-009
   GDM::        grad.step =  -2.268997063397238E-016
   ------- Leaving GDM -- hopefully with a step in the right direction! --------
 
   18    -469.4592384561      3.71E-09 Convergence criterion met
 ---------------------------------------
 One-Electron    Energy = -1389.3067955989
 Total Coulomb   Energy =   616.1981725586
 Alpha Exchange  Energy =    -5.1641867372
 Beta  Exchange  Energy =    -5.1641867372
 DFT   Exchange  Energy =   -41.4498141412
 DFT Correlation Energy =    -2.8554747976
 Nuclear Repu.   Energy =   358.2830469974
 Nuclear Attr.   Energy = -1810.1238674804
 Kinetic         Energy =   420.8170718815
 SCF time:  CPU 107.68 s  wall 11.51 s
 SCF   energy in the final basis set = -469.4592384561
 Total energy in the final basis set = -469.4592384561
 
 --------------------------------------------------------------
 
                    Orbital Energies (a.u.)
 --------------------------------------------------------------
 
 Alpha MOs
 -- Occupied --
-19.244 -19.220 -19.155 -19.120 -19.120  -2.074  -2.072  -1.309
 -1.285  -1.284  -1.281  -1.273  -1.270  -1.082  -0.907  -0.859
 -0.845  -0.840  -0.469  -0.463  -0.456  -0.382  -0.374  -0.367
 -0.349  -0.326  -0.317  -0.312  -0.310  -0.291  -0.290  -0.283
 -- Virtual --
 -0.119  -0.113  -0.086  -0.079  -0.066  -0.051  -0.036  -0.022
 -0.012   0.011   0.011   0.018   0.031   0.034   0.036   0.042
  0.046   0.054   0.099   0.102   0.138   0.140   0.153   0.166
  0.173   0.190   0.194   0.199   0.202   0.207   0.211   0.220
  0.225   0.232   0.248   0.255   0.259   0.269   0.272   0.281
  0.293   0.312   0.319   0.336   0.348   0.363   0.374   0.398
  0.417   0.423   0.479   0.565   0.660   0.880   0.905   1.126
  1.143   1.158   1.163   1.197   1.201   1.207   1.209   1.235
  1.235   1.254   1.259   1.289   1.297   1.302   1.507   1.517
  1.638   1.661   1.682   1.730   1.746   1.753   1.774   1.804
  1.818   1.823   1.829   1.849   1.850   1.854   1.862   1.864
  1.868   1.873   1.900   1.907   1.918   1.935   2.071   2.165
  2.177   2.279   2.303   3.119  14.330  16.058
 --------------------------------------------------------------
 
          Ground-State Mulliken Net Atomic Charges

     Atom                 Charge (a.u.)
  ----------------------------------------
      1 Zr                    1.608826
      2 Zr                    1.608823
      3 O                    -0.495216
      4 O                    -0.563950
      5 O                    -1.014271
      6 O                    -0.572100
      7 O                    -0.572112
  ----------------------------------------
  Sum of atomic charges =     0.000000

 -----------------------------------------------------------------
                    Cartesian Multipole Moments
 -----------------------------------------------------------------
    Charge (ESU x 10^10)
                 0.0000
    Dipole Moment (Debye)
         X       0.0011      Y       2.4924      Z       8.2259
       Tot       8.5952
    Quadrupole Moments (Debye-Ang)
        XX     -78.8244     XY       0.0018     YY     -73.3713
        XZ       0.0021     YZ       6.7428     ZZ     -68.6897
    Octopole Moments (Debye-Ang^2)
       XXX       0.0276    XXY       5.2644    XYY       0.0030
       YYY     -24.0897    XXZ      55.3226    XYZ       0.0006
       YYZ     -13.0129    XZZ       0.0070    YZZ       1.9452
       ZZZ     -37.6192
    Hexadecapole Moments (Debye-Ang^3)
      XXXX   -1457.9143   XXXY       0.0058   XXYY    -219.1190
      XYYY      -0.0022   YYYY    -279.9516   XXXZ      -0.0296
      XXYZ      19.7009   XYYZ      -0.0051   YYYZ      30.9550
      XXZZ    -237.9432   XYZZ      -0.0002   YYZZ     -89.0008
      XZZZ      -0.0174   YZZZ      39.9113   ZZZZ    -258.3508
 -----------------------------------------------------------------
 Calculating analytic gradient of the SCF energy
 Gradient of SCF Energy
            1           2           3           4           5           6
    1   0.0001449  -0.0001444   0.0000005   0.0000015   0.0000017  -0.0000977
    2   0.0001002   0.0001037  -0.0001198  -0.0001177   0.0000707  -0.0000192
    3   0.0000979   0.0001012  -0.0000052  -0.0000403  -0.0002497   0.0000480
            7
    1   0.0000935
    2  -0.0000178
    3   0.0000481
 Max gradient component =       2.497E-04
 RMS gradient           =       9.839E-05
 Gradient time:  CPU 22.13 s  wall 2.76 s
 Geometry Optimization Parameters
   NAtoms,    NIC,     NZ,  NCons,   NDum,   NFix, NCnnct, MaxDiis
        7      77       0       0       0       0       0       0

 Cartesian Hessian Update
 Hessian Updated using BFGS Update


** GEOMETRY OPTIMIZATION IN CARTESIAN COORDINATES **
   Searching for a Minimum

   Optimization Cycle:  42

                       Coordinates (Angstroms)
     ATOM                X               Y               Z
      1  Zr       -1.5220594885    0.2656611312    0.3871229805
      2  Zr        1.5220605858    0.2657608085    0.3873615610
      3  O        -0.0000966743   -0.9150013652    1.6481763368
      4  O         0.0000670677   -1.2129373392    0.1735633801
      5  O         0.0000089278    1.5100883526   -0.0400075409
      6  O         2.8162116109    0.0336383427   -0.8201346448
      7  O        -2.8164320295    0.0337000694   -0.8201820728
   Point Group: c1    Number of degrees of freedom:    15


   Energy is   -469.459238456


 Translations and Rotations Projected Out of Hessian

 14 Hessian modes will be used to form the next step
  Hessian Eigenvalues:
     0.004146    0.018521    0.094609    0.132252    0.208047    0.452164
     0.530344    0.687647    0.998434    0.999998    1.000000    1.000000
     1.000006    1.013482

 Minimum Search - Taking Simple RFO Step
 Searching for Lamda that Minimizes Along All modes
 Value Taken    Lamda =   0.00000000
 Step Taken.  Stepsize is  0.001716

                             Maximum     Tolerance    Cnvgd?
         Gradient           0.000250      0.000300     YES
         Displacement       0.000693      0.001200     YES
         Energy change      0.000000      0.000001     YES


                       Distance Matrix (Angstroms)
             Zr(  1)   Zr(  2)   O (  3)   O (  4)   O (  5)   O (  6)
   Zr(  2)  3.044120
   O (  3)  2.302301  2.302350
   O (  4)  2.132775  2.132773  1.504410
   O (  5)  2.011898  2.011874  2.954831  2.731388
   O (  6)  4.509091  1.785148  3.863168  3.236056  3.274065
   O (  7)  1.785159  4.509383  3.863233  3.236403  3.274253  5.632644

 
 Final energy is   -469.459238456140     


 ******************************
 **  OPTIMIZATION CONVERGED  **
 ******************************

                       Coordinates (Angstroms)
     ATOM                X               Y               Z
      1  Zr       -1.5220594885    0.2656611312    0.3871229805
      2  Zr        1.5220605858    0.2657608085    0.3873615610
      3  O        -0.0000966743   -0.9150013652    1.6481763368
      4  O         0.0000670677   -1.2129373392    0.1735633801
      5  O         0.0000089278    1.5100883526   -0.0400075409
      6  O         2.8162116109    0.0336383427   -0.8201346448
      7  O        -2.8164320295    0.0337000694   -0.8201820728

Z-matrix Print:
$molecule
0 1
Zr
O  1 1.785159
O  1 2.011898 2 119.034374
Zr 3 2.011874 1 98.319183 2 128.759659 0
O  4 1.785148 3 119.024881 1 -128.739266 0
O  4 2.132773 3 82.394025 1 -18.828550 0
O  6 1.504410 4 76.379627 3 93.241883 0
$end

 
 --------------------------------------------------------------
 
                    Orbital Energies (a.u.)
 --------------------------------------------------------------
 
 Alpha MOs
 -- Occupied --
-19.244 -19.220 -19.155 -19.120 -19.120  -2.074  -2.072  -1.309
 -1.285  -1.284  -1.281  -1.273  -1.270  -1.082  -0.907  -0.859
 -0.845  -0.840  -0.469  -0.463  -0.456  -0.382  -0.374  -0.367
 -0.349  -0.326  -0.317  -0.312  -0.310  -0.291  -0.290  -0.283
 -- Virtual --
 -0.119  -0.113  -0.086  -0.079  -0.066  -0.051  -0.036  -0.022
 -0.012   0.011   0.011   0.018   0.031   0.034   0.036   0.042
  0.046   0.054   0.099   0.102   0.138   0.140   0.153   0.166
  0.173   0.190   0.194   0.199   0.202   0.207   0.211   0.220
  0.225   0.232   0.248   0.255   0.259   0.269   0.272   0.281
  0.293   0.312   0.319   0.336   0.348   0.363   0.374   0.398
  0.417   0.423   0.479   0.565   0.660   0.880   0.905   1.126
  1.143   1.158   1.163   1.197   1.201   1.207   1.209   1.235
  1.235   1.254   1.259   1.289   1.297   1.302   1.507   1.517
  1.638   1.661   1.682   1.730   1.746   1.753   1.774   1.804
  1.818   1.823   1.829   1.849   1.850   1.854   1.862   1.864
  1.868   1.873   1.900   1.907   1.918   1.935   2.071   2.165
  2.177   2.279   2.303   3.119  14.330  16.058
 --------------------------------------------------------------
 
          Ground-State Mulliken Net Atomic Charges

     Atom                 Charge (a.u.)
  ----------------------------------------
      1 Zr                    1.608826
      2 Zr                    1.608823
      3 O                    -0.495216
      4 O                    -0.563950
      5 O                    -1.014271
      6 O                    -0.572100
      7 O                    -0.572112
  ----------------------------------------
  Sum of atomic charges =     0.000000

 -----------------------------------------------------------------
                    Cartesian Multipole Moments
 -----------------------------------------------------------------
    Charge (ESU x 10^10)
                 0.0000
    Dipole Moment (Debye)
         X       0.0011      Y       2.4924      Z       8.2259
       Tot       8.5952
    Quadrupole Moments (Debye-Ang)
        XX     -78.8244     XY       0.0018     YY     -73.3713
        XZ       0.0021     YZ       6.7428     ZZ     -68.6897
    Octopole Moments (Debye-Ang^2)
       XXX       0.0276    XXY       5.2644    XYY       0.0030
       YYY     -24.0897    XXZ      55.3226    XYZ       0.0006
       YYZ     -13.0129    XZZ       0.0070    YZZ       1.9452
       ZZZ     -37.6192
    Hexadecapole Moments (Debye-Ang^3)
      XXXX   -1457.9143   XXXY       0.0058   XXYY    -219.1190
      XYYY      -0.0022   YYYY    -279.9516   XXXZ      -0.0296
      XXYZ      19.7009   XYYZ      -0.0051   YYYZ      30.9550
      XXZZ    -237.9432   XYZZ      -0.0002   YYZZ     -89.0008
      XZZZ      -0.0174   YZZZ      39.9113   ZZZZ    -258.3508
 -----------------------------------------------------------------
Archival summary:
1\1\hpc3919\OPT\ProcedureUnspecified\BasisUnspecified\r25(+,1)\liqiuy\FriJan1719:43:252020FriJan1719:43:252020\0\\#,OPT,ProcedureUnspecified,BasisUnspecified,\\56,1\Zr\O,1,1.78516\O,1,2.0119,2,119.034\Zr,3,2.01187,1,98.3192,2,128.76,0\O,4,1.78515,3,119.025,1,-128.739,0\O,4,2.13277,3,82.394,1,-18.8286,0\O,6,1.50441,4,76.3796,3,93.2419,0\\\@

 Total job time:  830.72s(wall), 7070.58s(cpu) 
 Fri Jan 17 19:43:25 2020

        *************************************************************
        *                                                           *
        *  Thank you very much for using Q-Chem.  Have a nice day.  *
        *                                                           *
        *************************************************************


0 sent ACK to 0 
now end server 0 ... 
cleanup process ... done
