
Running Job 1 of 2 ZrOx.in
qchem ZrOx.in_3406.0 /tmp/5732644.priya/ZrOx.save/ 1
/usr/usc/qchem/4.4/bin/mpi/mpirun_qchem -machinefile /usr/usc/qchem/4.4/bin/mpi/machines -np 1 /usr/usc/qchem/4.4/exe/qcprog.exe ZrOx.in_3406.0 /tmp/5732644.priya/ZrOx.save/

Process 0 of 1 is on hpc3455.hpcc.usc.edu - thread support 0
initial socket setup ...start
initial socket setup ...done 
now start server 0 ... 
Check license passed

                  Welcome to Q-Chem
     A Quantum Leap Into The Future Of Chemistry


 Q-Chem 4.4, Q-Chem, Inc., Pleasanton, CA (2016)

 Y. Shao,  Z. Gan,  E. Epifanovsky,  A. T. B. Gilbert,  M. Wormit,  
 J. Kussmann,  A. W. Lange,  A. Behn,  J. Deng,  X. Feng,  D. Ghosh,  
 M. Goldey,  P. R. Horn,  L. D. Jacobson,  I. Kaliman,  F.Rob,  
 R. Z. Khaliullin,  T. Kus,  A. Landau,  J. Liu,  E. I. Proynov,  Y. M. Rhee,  
 R. M. Richard,  M. A. Rohrdanz,  R. P. Steele,  E. J. Sundstrom,  
 H. L. Woodcock III,  P. M. Zimmerman,  D. Zuev,  B. Albrecht,  E. Alguire,  
 B. Austin,  S. A. Baeppler,  G. J. O. Beran,  Y. A. Bernard,  E. Berquist,  
 K. Brandhorst,  K. B. Bravaya,  S. T. Brown,  D. Casanova,  C.-M. Chang,  
 Y. Chen,  S. H. Chien,  K. D. Closser,  M. P. Coons,  D. L. Crittenden,  
 S. Dasgupta,  M. Diedenhofen,  R. A. DiStasio Jr.,  H. Do,  A. D. Dutoi,  
 R. G. Edgar,  P.-T. Fang,  S. Fatehi,  Q. Feng,  L. Fusti-Molnar,  
 A. Ghysels,  A. Golubeva-Zadorozhnaya,  J. Gomes,  A. Gunina,  
 M. W. D. Hanson-Heine,  P. H. P. Harbach,  A. W. Hauser,  E. G. Hohenstein,  
 Z. C. Holden,  K. Hui,  T.-C. Jagau,  H. Ji,  B. Kaduk,  K. Khistyaev,  
 Jaehoon Kim,  Jihan Kim,  R. A. King,  P. Klunzinger,  D. Kosenkov,  
 T. Kowalczyk,  C. M. Krauter,  A. Kunitsa,  K. U. Lao,  A. Laurent,  
 K. V. Lawler,  D. Lefrancois,  S. Lehtola,  S. V. Levchenko,  C. Y. Lin,  
 Y.-S. Lin,  F. Liu,  E. Livshits,  R. C. Lochan,  A. Luenser,  P. Manohar,  
 S. F. Manzer,  S.-P. Mao,  Y. Mao,  N. Mardirossian,  A. V. Marenich,  
 L. A. Martinez-Martinez,  S. A. Maurer,  N. J. Mayhall,  J.-M. Mewes,  
 A. F. Morrison,  K. Nanda,  C. M. Oana,  R. Olivares-Amaya,  D. P. O'Neill,  
 J. A. Parkhill,  T. M. Perrine,  R. Peverati,  P. A. Pieniazek,  F. Plasser,  
 A. Prociuk,  D. R. Rehn,  E. Rosta,  N. J. Russ,  N. Sergueev,  
 S. M. Sharada,  S. Sharma,  D. W. Small,  A. Sodt,  T. Stauch,  T. Stein,  
 D. Stuck,  Y.-C. Su,  A. J. W. Thom,  T. Tsuchimochi,  L. Vogt,  O. Vydrov,  
 T. Wang,  M. A. Watson,  J. Wenzel,  A. White,  C. F. Williams,  
 V. Vanovschi,  S. Yeganeh,  S. R. Yost,  Z.-Q. You,  I. Y. Zhang,  X. Zhang,  
 Y. Zhao,  B. R. Brooks,  G. K. L. Chan,  D. M. Chipman,  C. J. Cramer,  
 W. A. Goddard III,  M. S. Gordon,  W. J. Hehre,  A. Klamt,  
 H. F. Schaefer III,  M. W. Schmidt,  C. D. Sherrill,  D. G. Truhlar,  
 A. Warshel,  X. Xu,  A. Aspuru-Guzik,  R. Baer,  A. T. Bell,  N. A. Besley,  
 J.-D. Chai,  A. Dreuw,  B. D. Dunietz,  T. R. Furlani,  S. R. Gwaltney,  
 C.-P. Hsu,  Y. Jung,  J. Kong,  D. S. Lambrecht,  W. Liang,  C. Ochsenfeld,  
 V. A. Rassolov,  L. V. Slipchenko,  J. E. Subotnik,  T. Van Voorhis,  
 J. M. Herbert,  A. I. Krylov,  P. M. W. Gill,  M. Head-Gordon

 Contributors to earlier versions of Q-Chem not listed above: 
 R. D. Adamson,  J. Baker,  E. F. C. Byrd,  A. K. Chakraborty,  C.-L. Cheng,  
 H. Dachsel,  R. J. Doerksen,  G. Hawkins,  A. Heyden,  S. Hirata,  
 G. Kedziora,  F. J. Keil,  C. Kelley,  P. P. Korambath,  W. Kurlancheek,  
 A. M. Lee,  M. S. Lee,  D. Liotard,  I. Lotan,  P. E. Maslen,  N. Nair,  
 D. Neuhauser,  R. Olson,  B. Peters,  J. Ritchie,  N. E. Schultz,  
 N. Shenvi,  A. C. Simmonett,  K. S. Thanthiriwatte,  Q. Wu,  W. Zhang

 Please cite Q-Chem as follows:
 Y. Shao et al., Mol. Phys. 113, 184-215 (2015)
 DOI: 10.1080/00268976.2014.952696

 Q-Chem 4.4.1 for Intel X86 Linux

 Parts of Q-Chem use Armadillo 5.200.1 (Boston Tea Smuggler).
 http://arma.sourceforge.net/

 Q-Chem begins on Fri Jan 17 19:30:39 2020  

Host: 
0

     Scratch files written to /tmp/5732644.priya/ZrOx.save//
 Jul2716 11668_ 21447  21445 5558   
 Parallel job on  1  processors
Processing $rem in /usr/usc/qchem/4.4/config/preferences.
 MEM_TOTAL  2000 

Checking the input file for inconsistencies... 	...done.

--------------------------------------------------------------
User input:
--------------------------------------------------------------
$comment
--------------------------------------------------------
A SINGLE POINT DFT CALCULATION WITH BASIS SET PROJECTION
--------------------------------------------------------
$end

$molecule
0 5
Zr 0.74154 0.00032 0.00000
Zr -1.22387 -0.00015 0.00000
O 2.52141 -0.00093 0.00000
$end

$rem
JOBTYPE   SP
METHOD   B3LYP
BASIS   GEN
ECP   GEN
MAX_SCF_CYCLES   200
SCF_CONVERGENCE 8
SCF_PRINT 1
PDB_PRINT 2
THRESH 14
VARTHRESH 14
INCDFT FALSE
SYMMETRY False
Sym_ignore True
SCF_ALGORITHM GDM
XC_GRID 000128000302
DFT_D           EMPIRICAL_GRIMME3
DFT_D3_S6       1000
DFT_D3_RS6     1261
DFT_D3_S8      1703
DFT_D3_3BODY    FALSE
$end

$basis
O
6-31+G**
****
S
6-31+G**
****
Zr
LanL2DZ
****
$end

$ecp
Zr
LanL2DZ
****
$end

--------------------------------------------------------------
 ----------------------------------------------------------------
             Standard Nuclear Orientation (Angstroms)
    I     Atom           X                Y                Z
 ----------------------------------------------------------------
    1      Zr      0.7415400000     0.0003200000     0.0000000000
    2      Zr     -1.2238700000    -0.0001500000     0.0000000000
    3      O       2.5214100000    -0.0009300000     0.0000000000
 ----------------------------------------------------------------
 Nuclear Repulsion Energy =    80.8765290483 hartrees
 There are       18 alpha and       14 beta electrons

 Q-Chem warning in module /home/scratch/svnadmin/11668_zgan/qchem/forms1/BasisType.C, line 1419:

 Setting pure/cartesian flag to 2111 for general basis


 Requested basis set is non-standard
 There are 21 shells and 62 basis functions

 Total QAlloc Memory Limit   2000 MB
 Mega-Array Size        61 MB
 MEM_STATIC part        62 MB

                       Distance Matrix (Angstroms)
             Zr(  1)   Zr(  2)
   Zr(  2)  1.965410
   O (  3)  1.779870  3.745280
 
 A cutoff of  1.0D-14 yielded    231 shell pairs
 There are      2039 function pairs (      2389 Cartesian)
 
 -------------------------------------------------------
 OpenMP Integral Computing Module                       
 Release: version 1.0, May 2013, Q-Chem Inc. Pittsburgh 
 -------------------------------------------------------
 Integral Job Info:
 Integral job number is                      11
 Integral operator is                         1
 short-range coefficients                     0
 long-range coefficients              100000000
 Omega coefficients                           0
 if combine SR and LR in K                    0
 Integral screening is                        0
 Integral computing path is                   2
 max size of driver memory is            800000
 size of driver memory is                593474
 size of scratch memory is             11771240
 max col of scratch BK array               1296
 max len of scratch array in speh3          155
 max len of scratch index in speh4           18
 max int batch size is                      520
 min int batch size is                       52
 fixed nKL is                                52
 max L of basis functions is                  2
 order of int derivative is                   0
 number of shells is                         21
 number of basis is                          67
 number of cartesian basis is                67
 number of contracted shell pairs           231
 number of primitive shell pairs           1152
 maxK2 (contraction) of shell pair           36
 max number of K2 of shell pair               1
 max number of CS2 of shell pair             10
 max number of PS2 of shell pair             72
 mem total for path MDJ                   21952
 -------------------------------------------------------
 Requested basis set is non-standard
 Compound shells will be simplified
 There are 24 shells and 62 basis functions
 A cutoff of  1.0D-14 yielded    300 shell pairs
 There are      2030 function pairs (      2380 Cartesian)
 Smallest overlap matrix eigenvalue = 1.30E-03

 Scale SEOQF with 1.000000e-01/1.000000e-01/1.000000e-01

 Standard Electronic Orientation quadrupole field applied
 Nucleus-field energy     =     0.0000000027 hartrees
 Guess MOs from core Hamiltonian diagonalization
 An unrestricted hybrid HF-DFT SCF calculation will be
 performed using Geometric Direct Minimization
 Exchange:     0.2000 Hartree-Fock + 0.0800 Slater + 0.7200 B88
 Correlation:  0.1900 VWN1RPA + 0.8100 LYP
 Using Euler-Maclaurin-Lebedev (128,302) quadrature formula
 Dispersion:   Grimme D3
 SCF converges when RMS gradient is below 1.0E-08
 Maximum number of minimization steps = 200
 using 12 threads for integral computing 
 -------------------------------------------------------
 OpenMP BLAS3 based DFT computing Module                
 Release: version 1.0, May 2013, Q-Chem Inc. Pittsburgh 
 -------------------------------------------------------
 
   ------------------- Entering Geometric Direct Minimization ------------------
   GDM:         diagonal hessian shift is      0.000000000000000E+000
   GDM::PreWSS: input subspace size is                  1
   GDM::PreWSS: working subspace size set to            1
   GDM::PrEWSS: # of linearly dependent vectors =            0
   GDM::PrEWSS: Max dev from orthonormality =   0.000000000000000E+000
   GDM::BFGS:   lowest Hinv e-value     1.00000000000000     
   GDM::BFGS:   highest Hinv e-value    1.00000000000000     
   GDM::      : max scaling in EWCs is          1.41421356237309     
   GDM::      : max rotation in step is        0.122672837210491     
   GDM::        grad.step =   -1.87542009451804     
   ------- Leaving GDM -- hopefully with a step in the right direction! --------
 
 ---------------------------------------
  Cycle       Energy        RMS Gradient
 ---------------------------------------
    1    -154.8846901464      1.91E+00  Gap = 0.00 eV  Descent step
 
   ------------------- Entering Geometric Direct Minimization ------------------
   GDM::trust : actual energy change is        -1.83466705037873     
   GDM::trust : predicted energy change was   -0.163350000000000     
   GDM::trust : updated trust radius is        0.330000000000000     
   GDM:         diagonal hessian shift is      0.000000000000000E+000
   GDM::PreWSS: input subspace size is                  2
   GDM::PreWSS: working subspace size set to            2
   GDM::PrEWSS: # of linearly dependent vectors =            0
   GDM::PrEWSS: Max dev from orthonormality =   1.036670749243740E-014
   GDM::BFGS:   lowest Hinv e-value    0.523713528755402     
   GDM::BFGS:   highest Hinv e-value    2.91848313946859     
   GDM::      : max scaling in EWCs is          1.41421356237309     
   GDM::      : max rotation in step is       -0.111220410000284     
   GDM::        grad.step =   -1.73517827297809     
   ------- Leaving GDM -- hopefully with a step in the right direction! --------
 
    2    -156.7193571968      1.37E+00  Gap = 230.65 eV  Descent step
 
   ------------------- Entering Geometric Direct Minimization ------------------
   GDM::trust : actual energy change is        -1.68874342488468     
   GDM::trust : predicted energy change was   -0.133708514719412     
   GDM::trust : updated trust radius is        0.330000000000000     
   GDM:         diagonal hessian shift is      0.000000000000000E+000
   GDM::PreWSS: input subspace size is                  3
   GDM::PreWSS: working subspace size set to            3
   GDM::PrEWSS: # of linearly dependent vectors =            0
   GDM::PrEWSS: Max dev from orthonormality =   4.906613310096120E-013
   GDM::BFGS:   lowest Hinv e-value    0.408893146551061     
   GDM::BFGS:   highest Hinv e-value    1.81593464995843     
   GDM::      : max scaling in EWCs is          1.41421356237309     
   GDM::      : max rotation in step is       -0.166523704804861     
   GDM::        grad.step =   -1.94564593697332     
   ------- Leaving GDM -- hopefully with a step in the right direction! --------
 
    3    -158.4081006217      2.10E+00  Gap = 230.65 eV  Descent step
 
   ------------------- Entering Geometric Direct Minimization ------------------
   GDM::trust : actual energy change is        -1.87772238476020     
   GDM::trust : predicted energy change was   -0.143716506929343     
   GDM::trust : updated trust radius is        0.330000000000000     
   GDM:         diagonal hessian shift is      0.000000000000000E+000
   GDM::PreWSS: input subspace size is                  4
   GDM::PreWSS: working subspace size set to            4
   GDM::PrEWSS: # of linearly dependent vectors =            0
   GDM::PrEWSS: Max dev from orthonormality =   4.851535839733856E-013
   GDM::BFGS:   lowest Hinv e-value    0.386199657810544     
   GDM::BFGS:   highest Hinv e-value    1.73650812891643     
   GDM::      : max scaling in EWCs is          1.41421356237309     
   GDM::      : max rotation in step is       -0.185315181618224     
   GDM::        grad.step =   -1.89867193984066     
   ------- Leaving GDM -- hopefully with a step in the right direction! --------
 
    4    -160.2858230064      2.28E+00  Gap = 230.65 eV  Descent step
 
   ------------------- Entering Geometric Direct Minimization ------------------
   GDM::trust : actual energy change is        -1.69548018170821     
   GDM::trust : predicted energy change was   -0.194695395746773     
   GDM::trust : updated trust radius is        0.330000000000000     
   GDM:         diagonal hessian shift is      0.000000000000000E+000
   GDM::PreWSS: input subspace size is                  5
   GDM::PreWSS: working subspace size set to            5
   GDM::PrEWSS: # of linearly dependent vectors =            0
   GDM::PrEWSS: Max dev from orthonormality =   1.996657700287230E-011
   GDM::BFGS:   lowest Hinv e-value    0.369533384633271     
   GDM::BFGS:   highest Hinv e-value    1.75876905528980     
   GDM::      : max scaling in EWCs is          1.41421356237309     
   GDM::      : max rotation in step is       -8.289452639351483E-002
   GDM::        grad.step =   -1.11215079400681     
   ------- Leaving GDM -- hopefully with a step in the right direction! --------
 
    5    -161.9813031881      8.27E-01  Gap = 230.65 eV  Descent step
 
   ------------------- Entering Geometric Direct Minimization ------------------
   GDM::trust : actual energy change is        -1.02900481816494     
   GDM::trust : predicted energy change was   -0.179263309828253     
   GDM::trust : updated trust radius is        0.330000000000000     
   GDM:         diagonal hessian shift is      0.000000000000000E+000
   GDM::PreWSS: input subspace size is                  6
   GDM::PreWSS: working subspace size set to            6
   GDM::PrEWSS: # of linearly dependent vectors =            0
   GDM::PrEWSS: Max dev from orthonormality =   4.257677543861860E-012
   GDM::BFGS:   lowest Hinv e-value    0.368289229903754     
   GDM::BFGS:   highest Hinv e-value    1.88477983116607     
   GDM::      : max scaling in EWCs is          2.82842712474619     
   GDM::      : max rotation in step is       -0.308323702776580     
   GDM::        grad.step =   -1.15393113684028     
   ------- Leaving GDM -- hopefully with a step in the right direction! --------
 
    6    -163.0103080063      1.16E+00  Gap = 230.65 eV  Descent step
 
   ------------------- Entering Geometric Direct Minimization ------------------
   GDM::trust : actual energy change is       -0.991528587104739     
   GDM::trust : predicted energy change was   -0.178203381170726     
   GDM::trust : updated trust radius is        0.330000000000000     
   GDM:         diagonal hessian shift is      0.000000000000000E+000
   GDM::PreWSS: input subspace size is                  7
   GDM::PreWSS: working subspace size set to            7
   GDM::PrEWSS: # of linearly dependent vectors =            0
   GDM::PrEWSS: Max dev from orthonormality =   1.432978215254455E-011
   GDM::BFGS:   lowest Hinv e-value    0.312486148587391     
   GDM::BFGS:   highest Hinv e-value    1.93322488839223     
   GDM::      : max scaling in EWCs is          2.82842712474619     
   GDM::      : max rotation in step is       -0.289409740544995     
   GDM::        grad.step =   -1.02809720923457     
   ------- Leaving GDM -- hopefully with a step in the right direction! --------
 
    7    -164.0018365934      9.66E-01  Gap = 0.00 eV  Descent step
 
   ------------------- Entering Geometric Direct Minimization ------------------
   GDM::trust : actual energy change is       -0.868180736636504     
   GDM::trust : predicted energy change was   -0.183381845963188     
   GDM::trust : updated trust radius is        0.330000000000000     
   GDM:         diagonal hessian shift is      0.000000000000000E+000
   GDM::PreWSS: input subspace size is                  8
   GDM::PreWSS: working subspace size set to            8
   GDM::PrEWSS: # of linearly dependent vectors =            0
   GDM::PrEWSS: Max dev from orthonormality =   4.324881251738244E-011
   GDM::BFGS:   lowest Hinv e-value    0.258276113558917     
   GDM::BFGS:   highest Hinv e-value    2.07510290542839     
   GDM::      : max scaling in EWCs is          2.82842712474619     
   GDM::      : max rotation in step is       -0.156336565604770     
   GDM::        grad.step =  -0.780333589799076     
   ------- Leaving GDM -- hopefully with a step in the right direction! --------
 
    8    -164.8700173301      4.86E-01  Gap = 0.00 eV  Descent step
 
   ------------------- Entering Geometric Direct Minimization ------------------
   GDM::trust : actual energy change is       -0.722963090596153     
   GDM::trust : predicted energy change was   -0.161204611781549     
   GDM::trust : updated trust radius is        0.330000000000000     
   GDM:         diagonal hessian shift is      0.000000000000000E+000
   GDM::PreWSS: input subspace size is                  9
   GDM::PreWSS: working subspace size set to            9
   GDM::PrEWSS: # of linearly dependent vectors =            0
   GDM::PrEWSS: Max dev from orthonormality =   1.309329727972042E-011
   GDM::BFGS:   lowest Hinv e-value    0.206121192272049     
   GDM::BFGS:   highest Hinv e-value    2.86321558142932     
   GDM::      : max scaling in EWCs is          2.82842712474619     
   GDM::      : max rotation in step is       -0.215611241703389     
   GDM::        grad.step =  -0.911653401593257     
   ------- Leaving GDM -- hopefully with a step in the right direction! --------
 
    9    -165.5929804207      7.34E-01  Gap = 0.00 eV  Descent step
 
   ------------------- Entering Geometric Direct Minimization ------------------
   GDM::trust : actual energy change is       -0.799500087711351     
   GDM::trust : predicted energy change was   -0.153731097895809     
   GDM::trust : updated trust radius is        0.330000000000000     
   GDM:         diagonal hessian shift is      0.000000000000000E+000
   GDM::PreWSS: input subspace size is                 10
   GDM::PreWSS: working subspace size set to           10
   GDM::PrEWSS: # of linearly dependent vectors =            0
   GDM::PrEWSS: Max dev from orthonormality =   1.632251798999729E-011
   GDM::BFGS:   lowest Hinv e-value    0.194913255034187     
   GDM::BFGS:   highest Hinv e-value    3.54549890715234     
   GDM::      : max scaling in EWCs is          2.82842712474619     
   GDM::      : max rotation in step is        0.295591645776977     
   GDM::        grad.step =  -0.749517539345288     
   ------- Leaving GDM -- hopefully with a step in the right direction! --------
 
   10    -166.3924805084      7.19E-01  Gap = 0.00 eV  Descent step
 
   ------------------- Entering Geometric Direct Minimization ------------------
   GDM::trust : actual energy change is       -0.612901150671860     
   GDM::trust : predicted energy change was   -0.167913691796907     
   GDM::trust : updated trust radius is        0.330000000000000     
   GDM:         diagonal hessian shift is      0.000000000000000E+000
   GDM::PreWSS: input subspace size is                 11
   GDM::PreWSS: working subspace size set to           11
   GDM::PrEWSS: # of linearly dependent vectors =            0
   GDM::PrEWSS: Max dev from orthonormality =   4.042551016159024E-012
   GDM::BFGS:   lowest Hinv e-value    0.180346991500063     
   GDM::BFGS:   highest Hinv e-value    4.26603778739034     
   GDM::      : max scaling in EWCs is          2.82842712474619     
   GDM::      : max rotation in step is        0.235923417880349     
   GDM::        grad.step =  -0.488184504626364     
   ------- Leaving GDM -- hopefully with a step in the right direction! --------
 
   11    -167.0053816590      3.74E-01  Gap = 0.00 eV  Descent step
 
   ------------------- Entering Geometric Direct Minimization ------------------
   GDM::trust : actual energy change is       -0.447098280226129     
   GDM::trust : predicted energy change was   -0.162667846287312     
   GDM::trust : updated trust radius is        0.330000000000000     
   GDM:         diagonal hessian shift is      0.000000000000000E+000
   GDM::PreWSS: input subspace size is                 12
   GDM::PreWSS: working subspace size set to           12
   GDM::PrEWSS: # of linearly dependent vectors =            0
   GDM::PrEWSS: Max dev from orthonormality =   1.333180527779421E-011
   GDM::BFGS:   lowest Hinv e-value    0.173865786800896     
   GDM::BFGS:   highest Hinv e-value    4.85389906955524     
   GDM::      : max scaling in EWCs is          2.82842712474619     
   GDM::      : max rotation in step is       -0.315189143477600     
   GDM::        grad.step =  -0.368329063309354     
   ------- Leaving GDM -- hopefully with a step in the right direction! --------
 
   12    -167.4524799393      3.77E-01  Gap = 0.00 eV  Descent step
 
   ------------------- Entering Geometric Direct Minimization ------------------
   GDM::trust : actual energy change is       -0.299412094983126     
   GDM::trust : predicted energy change was   -0.149214185439371     
   GDM::trust : updated trust radius is        0.330000000000000     
   GDM:         diagonal hessian shift is      0.000000000000000E+000
   GDM::PreWSS: input subspace size is                 13
   GDM::PreWSS: working subspace size set to           13
   GDM::PrEWSS: # of linearly dependent vectors =            0
   GDM::PrEWSS: Max dev from orthonormality =   2.538820716158074E-012
   GDM::BFGS:   lowest Hinv e-value    0.156549489002225     
   GDM::BFGS:   highest Hinv e-value    5.38946550614188     
   GDM::      : max scaling in EWCs is          2.82842712474619     
   GDM::      : max rotation in step is       -0.407225842465517     
   GDM::        grad.step =  -0.282943530993834     
   ------- Leaving GDM -- hopefully with a step in the right direction! --------
 
   13    -167.7518920342      3.74E-01  Gap = 0.00 eV  Descent step
 
   ------------------- Entering Geometric Direct Minimization ------------------
   GDM::trust : actual energy change is       -0.148597023247589     
   GDM::trust : predicted energy change was   -0.234267839954759     
   GDM::trust : updated trust radius is        0.330000000000000     
   GDM:         diagonal hessian shift is      0.000000000000000E+000
   GDM::PreWSS: input subspace size is                 14
   GDM::PreWSS: working subspace size set to           14
   GDM::PrEWSS: # of linearly dependent vectors =            0
   GDM::PrEWSS: Max dev from orthonormality =   3.069068870570346E-011
   GDM::BFGS:   lowest Hinv e-value    0.144626813300986     
   GDM::BFGS:   highest Hinv e-value    4.84230223262803     
   GDM::      : max scaling in EWCs is          2.82842712474619     
   GDM::      : max rotation in step is       -0.400522148793737     
   GDM::        grad.step =  -0.346820310419323     
   ------- Leaving GDM -- hopefully with a step in the right direction! --------
 
   14    -167.9004890575      5.15E-01  Gap = 0.00 eV  Descent step
 
   ------------------- Entering Geometric Direct Minimization ------------------
   GDM::trust : actual energy change is        5.244629733064698E-002
   GDM::trust : predicted energy change was   -0.394598702686766     
   GDM::trust : updated trust radius is        0.108900000000000     
   GDM::search:  On step            1 .  The current bracket is:
       left   : x =  0.0000E+00, e =      -167.9004890575, g = -0.4549E+00
       current: x =  0.7625E+00, e =      -167.8480427602, g =  0.6725E+00
       right  : x =  0.1000E+04, e =      1000.0000000000, g =  0.1000E+04
       next   : x =  0.3312E+00
   GDM::      : max rotation in step is       -0.173955463940834     
   ------- Leaving GDM -- hopefully with a step in the right direction! --------
 
   15    -167.8480427602      8.31E-02  Gap = 0.00 eV  Line search: overstep
 
   ------------------- Entering Geometric Direct Minimization ------------------
   GDM::trust : actual energy change is       -8.466748043915118E-002
   GDM::trust : predicted energy change was   -0.394598702686766     
   GDM::trust : updated trust radius is        0.108900000000000     
   GDM:         diagonal hessian shift is      0.000000000000000E+000
   GDM::PreWSS: input subspace size is                 15
   GDM::PreWSS: working subspace size set to           15
   GDM::PrEWSS: # of linearly dependent vectors =            0
   GDM::PrEWSS: Max dev from orthonormality =   8.103078971699595E-012
   GDM::BFGS:   lowest Hinv e-value    0.181078490614771     
   GDM::BFGS:   highest Hinv e-value    5.34841853447648     
   GDM::      : max scaling in EWCs is          2.82842712474619     
   GDM::      : max rotation in step is       -0.138479717360118     
   GDM::        grad.step =  -4.798272769878834E-002
   ------- Leaving GDM -- hopefully with a step in the right direction! --------
 
   16    -167.9851565379      2.09E-01  Gap = 0.00 eV  Descent step
 
   ------------------- Entering Geometric Direct Minimization ------------------
   GDM::trust : actual energy change is       -3.957070835812715E-002
   GDM::trust : predicted energy change was   -1.964435572307931E-002
   GDM::trust : updated trust radius is        0.330000000000000     
   GDM:         diagonal hessian shift is      0.000000000000000E+000
   GDM::PreWSS: input subspace size is                 16
   GDM::PreWSS: working subspace size set to           16
   GDM::PrEWSS: # of linearly dependent vectors =            0
   GDM::PrEWSS: Max dev from orthonormality =   2.459537434829073E-011
   GDM::BFGS:   lowest Hinv e-value    0.177920370904067     
   GDM::BFGS:   highest Hinv e-value    5.19559807330296     
   GDM::      : max scaling in EWCs is          2.82842712474619     
   GDM::      : max rotation in step is       -0.426216976996285     
   GDM::        grad.step =  -0.112141451324648     
   ------- Leaving GDM -- hopefully with a step in the right direction! --------
 
   17    -168.0247272463      1.72E-01  Gap = 0.00 eV  Descent step
 
   ------------------- Entering Geometric Direct Minimization ------------------
   GDM::trust : actual energy change is       -3.594653936201553E-002
   GDM::trust : predicted energy change was   -0.150586618497487     
   GDM::trust : updated trust radius is        0.330000000000000     
   GDM:         diagonal hessian shift is      0.000000000000000E+000
   GDM::PreWSS: input subspace size is                 17
   GDM::PreWSS: working subspace size set to           17
   GDM::PrEWSS: # of linearly dependent vectors =            0
   GDM::PrEWSS: Max dev from orthonormality =   6.624770176877348E-012
   GDM::BFGS:   lowest Hinv e-value    0.161203059796444     
   GDM::BFGS:   highest Hinv e-value    5.70958321994172     
   GDM::      : max scaling in EWCs is          2.82842712474619     
   GDM::      : max rotation in step is        6.858140964861324E-002
   GDM::        grad.step =  -6.345872552467249E-002
   ------- Leaving GDM -- hopefully with a step in the right direction! --------
 
   18    -168.0606737857      2.04E-01  Gap = 0.00 eV  Normal BFGS step
 
   ------------------- Entering Geometric Direct Minimization ------------------
   GDM::trust : actual energy change is       -2.584522370528930E-002
   GDM::trust : predicted energy change was   -9.518808828700881E-002
   GDM::trust : updated trust radius is        0.330000000000000     
   GDM:         diagonal hessian shift is      0.000000000000000E+000
   GDM::PreWSS: input subspace size is                 18
   GDM::PreWSS: working subspace size set to           18
   GDM::PrEWSS: # of linearly dependent vectors =            0
   GDM::PrEWSS: Max dev from orthonormality =   7.843991081668555E-012
   GDM::BFGS:   lowest Hinv e-value    0.169301074679644     
   GDM::BFGS:   highest Hinv e-value    4.96790950264535     
   GDM::      : max scaling in EWCs is          2.82769983160954     
   GDM::      : max rotation in step is        7.102643312514739E-002
   GDM::        grad.step =  -1.752355499185555E-002
   ------- Leaving GDM -- hopefully with a step in the right direction! --------
 
   19    -168.0865190094      3.02E-02  Gap = 0.00 eV  Normal BFGS step
 
   ------------------- Entering Geometric Direct Minimization ------------------
   GDM::trust : actual energy change is        1.642958609073730E-002
   GDM::trust : predicted energy change was   -2.628533248778332E-002
   GDM::trust : updated trust radius is        0.108900000000000     
   GDM::search:  On step            1 .  The current bracket is:
       left   : x =  0.0000E+00, e =      -168.0865190094, g = -0.7907E-01
       current: x =  0.2216E+00, e =      -168.0700894233, g =  0.2215E+00
       right  : x =  0.1000E+04, e =      1000.0000000000, g =  0.1000E+04
       next   : x =  0.5719E-01
   GDM::      : max rotation in step is        1.832872551785750E-002
   ------- Leaving GDM -- hopefully with a step in the right direction! --------
 
   20    -168.0700894233      4.84E-02  Gap = 0.00 eV  Line search: overstep
 
   ------------------- Entering Geometric Direct Minimization ------------------
   GDM::trust : actual energy change is       -2.194869017557721E-003
   GDM::trust : predicted energy change was   -2.628533248778332E-002
   GDM::trust : updated trust radius is        0.108900000000000     
   GDM:         diagonal hessian shift is      0.000000000000000E+000
   GDM::PreWSS: input subspace size is                 19
   GDM::PreWSS: working subspace size set to           18
   GDM::PrEWSS: # of linearly dependent vectors =            0
   GDM::PrEWSS: Max dev from orthonormality =   2.466733761696815E-011
   GDM::BFGS:   lowest Hinv e-value    0.167163674371240     
   GDM::BFGS:   highest Hinv e-value    3.79110692038849     
   GDM::      : max scaling in EWCs is          2.76916103984462     
   GDM::      : max rotation in step is       -4.836918309776043E-002
   GDM::        grad.step =  -3.633618705203230E-003
   ------- Leaving GDM -- hopefully with a step in the right direction! --------
 
   21    -168.0887138784      3.19E-02  Gap = 0.00 eV  Normal BFGS step
 
   ------------------- Entering Geometric Direct Minimization ------------------
   GDM::trust : actual energy change is       -1.249661201768504E-003
   GDM::trust : predicted energy change was   -5.450428057804845E-003
   GDM::trust : updated trust radius is        0.330000000000000     
   GDM:         diagonal hessian shift is      0.000000000000000E+000
   GDM::PreWSS: input subspace size is                 19
   GDM::PreWSS: working subspace size set to           18
   GDM::PrEWSS: # of linearly dependent vectors =            0
   GDM::PrEWSS: Max dev from orthonormality =   7.955767988843121E-012
   GDM::BFGS:   lowest Hinv e-value    0.163142074815820     
   GDM::BFGS:   highest Hinv e-value    3.64332941414339     
   GDM::      : max scaling in EWCs is          2.78253134252239     
   GDM::      : max rotation in step is       -2.615795012029446E-002
   GDM::        grad.step =  -1.892561295918073E-003
   ------- Leaving GDM -- hopefully with a step in the right direction! --------
 
   22    -168.0899635396      8.33E-03  Gap = 0.00 eV  Normal BFGS step
 
   ------------------- Entering Geometric Direct Minimization ------------------
   GDM::trust : actual energy change is        1.037402429062695E-004
   GDM::trust : predicted energy change was   -2.838841943877110E-003
   GDM::trust : updated trust radius is        0.108900000000000     
   GDM::search:  On step            1 .  The current bracket is:
       left   : x =  0.0000E+00, e =      -168.0899635396, g = -0.3130E-01
       current: x =  0.6046E-01, e =      -168.0898597993, g =  0.3488E-01
       right  : x =  0.1000E+04, e =      1000.0000000000, g =  0.1000E+04
       next   : x =  0.2866E-01
   GDM::      : max rotation in step is       -1.239931017820571E-002
   ------- Leaving GDM -- hopefully with a step in the right direction! --------
 
   23    -168.0898597993      4.37E-03  Gap = 0.00 eV  Line search: overstep
 
   ------------------- Entering Geometric Direct Minimization ------------------
   GDM::trust : actual energy change is       -4.495959796315674E-004
   GDM::trust : predicted energy change was   -2.838841943877110E-003
   GDM::trust : updated trust radius is        0.108900000000000     
   GDM:         diagonal hessian shift is      0.000000000000000E+000
   GDM::PreWSS: input subspace size is                 19
   GDM::PreWSS: working subspace size set to           18
   GDM::PrEWSS: # of linearly dependent vectors =            0
   GDM::PrEWSS: Max dev from orthonormality =   1.038510250017666E-011
   GDM::BFGS:   lowest Hinv e-value    0.161841002139157     
   GDM::BFGS:   highest Hinv e-value    3.52078435122572     
   GDM::      : max scaling in EWCs is          2.80137244566516     
   GDM::      : max rotation in step is        6.873995169235424E-003
   GDM::        grad.step =  -4.406967136481500E-004
   ------- Leaving GDM -- hopefully with a step in the right direction! --------
 
   24    -168.0904131356      1.01E-02  Gap = 0.00 eV  Normal BFGS step
 
   ------------------- Entering Geometric Direct Minimization ------------------
   GDM::trust : actual energy change is       -1.011154751893173E-004
   GDM::trust : predicted energy change was   -6.610450704722249E-004
   GDM::trust : updated trust radius is        0.330000000000000     
   GDM:         diagonal hessian shift is      0.000000000000000E+000
   GDM::PreWSS: input subspace size is                 19
   GDM::PreWSS: working subspace size set to           18
   GDM::PrEWSS: # of linearly dependent vectors =            0
   GDM::PrEWSS: Max dev from orthonormality =   8.923008165684365E-012
   GDM::BFGS:   lowest Hinv e-value    0.169486126682233     
   GDM::BFGS:   highest Hinv e-value    3.01163847526263     
   GDM::      : max scaling in EWCs is          2.79170766433720     
   GDM::      : max rotation in step is        6.431232546672044E-003
   GDM::        grad.step =  -1.990087819711074E-004
   ------- Leaving GDM -- hopefully with a step in the right direction! --------
 
   25    -168.0905142510      2.84E-03  Gap = 0.00 eV  Normal BFGS step
 
   ------------------- Entering Geometric Direct Minimization ------------------
   GDM::trust : actual energy change is       -3.702864165688879E-005
   GDM::trust : predicted energy change was   -2.985131729566611E-004
   GDM::trust : updated trust radius is        0.330000000000000     
   GDM:         diagonal hessian shift is      0.000000000000000E+000
   GDM::PreWSS: input subspace size is                 19
   GDM::PreWSS: working subspace size set to           18
   GDM::PrEWSS: # of linearly dependent vectors =            0
   GDM::PrEWSS: Max dev from orthonormality =   5.039420269969952E-012
   GDM::BFGS:   lowest Hinv e-value    0.167389347161083     
   GDM::BFGS:   highest Hinv e-value    2.77542099478190     
   GDM::      : max scaling in EWCs is          2.78690749142256     
   GDM::      : max rotation in step is       -5.292342704526188E-003
   GDM::        grad.step =  -9.843676544784053E-005
   ------- Leaving GDM -- hopefully with a step in the right direction! --------
 
   26    -168.0905512797      3.52E-03  Gap = 0.00 eV  Normal BFGS step
 
   ------------------- Entering Geometric Direct Minimization ------------------
   GDM::trust : actual energy change is       -3.441936732428985E-005
   GDM::trust : predicted energy change was   -1.476551481717607E-004
   GDM::trust : updated trust radius is        0.330000000000000     
   GDM:         diagonal hessian shift is      0.000000000000000E+000
   GDM::PreWSS: input subspace size is                 19
   GDM::PreWSS: working subspace size set to           18
   GDM::PrEWSS: # of linearly dependent vectors =            0
   GDM::PrEWSS: Max dev from orthonormality =   2.576371060936111E-011
   GDM::BFGS:   lowest Hinv e-value    0.160745286644525     
   GDM::BFGS:   highest Hinv e-value    2.13897473522223     
   GDM::      : max scaling in EWCs is          2.79493916664128     
   GDM::      : max rotation in step is       -2.239872818728339E-003
   GDM::        grad.step =  -2.333912030296381E-005
   ------- Leaving GDM -- hopefully with a step in the right direction! --------
 
   27    -168.0905856990      1.21E-03  Gap = -13.52 eV  Normal BFGS step
 
   ------------------- Entering Geometric Direct Minimization ------------------
   GDM::trust : actual energy change is       -4.731780791189522E-006
   GDM::trust : predicted energy change was   -3.500868045444572E-005
   GDM::trust : updated trust radius is        0.330000000000000     
   GDM:         diagonal hessian shift is      0.000000000000000E+000
   GDM::PreWSS: input subspace size is                 19
   GDM::PreWSS: working subspace size set to           18
   GDM::PrEWSS: # of linearly dependent vectors =            0
   GDM::PrEWSS: Max dev from orthonormality =   3.973009421454066E-011
   GDM::BFGS:   lowest Hinv e-value    0.164204010849987     
   GDM::BFGS:   highest Hinv e-value    2.24490001301166     
   GDM::      : max scaling in EWCs is          2.79228633579650     
   GDM::      : max rotation in step is        1.197536990655174E-003
   GDM::        grad.step =  -9.007920722381915E-006
   ------- Leaving GDM -- hopefully with a step in the right direction! --------
 
   28    -168.0905904308      1.22E-03  Gap = 0.00 eV  Normal BFGS step
 
   ------------------- Entering Geometric Direct Minimization ------------------
   GDM::trust : actual energy change is       -3.572997087530894E-006
   GDM::trust : predicted energy change was   -1.351188108357287E-005
   GDM::trust : updated trust radius is        0.330000000000000     
   GDM:         diagonal hessian shift is      0.000000000000000E+000
   GDM::PreWSS: input subspace size is                 19
   GDM::PreWSS: working subspace size set to           18
   GDM::PrEWSS: # of linearly dependent vectors =            0
   GDM::PrEWSS: Max dev from orthonormality =   7.695538650764888E-012
   GDM::BFGS:   lowest Hinv e-value    0.161532472075940     
   GDM::BFGS:   highest Hinv e-value    1.98235605263118     
   GDM::      : max scaling in EWCs is          2.79201252206299     
   GDM::      : max rotation in step is       -5.250806145996450E-004
   GDM::        grad.step =  -1.921640392473289E-006
   ------- Leaving GDM -- hopefully with a step in the right direction! --------
 
   29    -168.0905940038      7.10E-04  Gap = 0.00 eV  Normal BFGS step
 
   ------------------- Entering Geometric Direct Minimization ------------------
   GDM::trust : actual energy change is       -3.479836436781625E-007
   GDM::trust : predicted energy change was   -2.882460588709934E-006
   GDM::trust : updated trust radius is        0.330000000000000     
   GDM:         diagonal hessian shift is      0.000000000000000E+000
   GDM::PreWSS: input subspace size is                 19
   GDM::PreWSS: working subspace size set to           18
   GDM::PrEWSS: # of linearly dependent vectors =            0
   GDM::PrEWSS: Max dev from orthonormality =   4.832086120121204E-012
   GDM::BFGS:   lowest Hinv e-value    0.162467885158944     
   GDM::BFGS:   highest Hinv e-value    1.92068323414429     
   GDM::      : max scaling in EWCs is          2.79163356607541     
   GDM::      : max rotation in step is       -1.651229922211021E-004
   GDM::        grad.step =  -6.886089377528577E-007
   ------- Leaving GDM -- hopefully with a step in the right direction! --------
 
   30    -168.0905943518      2.31E-04  Gap = 0.00 eV  Normal BFGS step
 
   ------------------- Entering Geometric Direct Minimization ------------------
   GDM::trust : actual energy change is       -3.459523156834621E-007
   GDM::trust : predicted energy change was   -1.032913406629286E-006
   GDM::trust : updated trust radius is        0.330000000000000     
   GDM:         diagonal hessian shift is      0.000000000000000E+000
   GDM::PreWSS: input subspace size is                 19
   GDM::PreWSS: working subspace size set to           18
   GDM::PrEWSS: # of linearly dependent vectors =            0
   GDM::PrEWSS: Max dev from orthonormality =   2.488419192925306E-012
   GDM::BFGS:   lowest Hinv e-value    0.159756524883718     
   GDM::BFGS:   highest Hinv e-value    1.98733803261448     
   GDM::      : max scaling in EWCs is          2.79199036691813     
   GDM::      : max rotation in step is        1.601693619033343E-004
   GDM::        grad.step =  -2.353376326479399E-008
   ------- Leaving GDM -- hopefully with a step in the right direction! --------
 
   31    -168.0905946978      7.27E-05  Gap = 0.00 eV  Normal BFGS step
 
   ------------------- Entering Geometric Direct Minimization ------------------
   GDM::trust : actual energy change is       -1.230765178661386E-008
   GDM::trust : predicted energy change was   -3.530064489719100E-008
   GDM::trust : updated trust radius is        0.330000000000000     
   GDM:         diagonal hessian shift is      0.000000000000000E+000
   GDM::PreWSS: input subspace size is                 19
   GDM::PreWSS: working subspace size set to           18
   GDM::PrEWSS: # of linearly dependent vectors =            0
   GDM::PrEWSS: Max dev from orthonormality =   3.837149348262514E-012
   GDM::BFGS:   lowest Hinv e-value    0.155751006818322     
   GDM::BFGS:   highest Hinv e-value    2.10605456044571     
   GDM::      : max scaling in EWCs is          2.79185944194291     
   GDM::      : max rotation in step is        7.423600771248846E-005
   GDM::        grad.step =  -7.039230980992088E-009
   ------- Leaving GDM -- hopefully with a step in the right direction! --------
 
   32    -168.0905947101      2.67E-05  Gap = 0.00 eV  Normal BFGS step
 
   ------------------- Entering Geometric Direct Minimization ------------------
   GDM::trust : actual energy change is       -3.036547013834934E-009
   GDM::trust : predicted energy change was   -1.055884647148813E-008
   GDM::trust : updated trust radius is        0.330000000000000     
   GDM:         diagonal hessian shift is      0.000000000000000E+000
   GDM::PreWSS: input subspace size is                 19
   GDM::PreWSS: working subspace size set to           18
   GDM::PrEWSS: # of linearly dependent vectors =            0
   GDM::PrEWSS: Max dev from orthonormality =   4.381609658432595E-012
   GDM::BFGS:   lowest Hinv e-value    0.155841096556405     
   GDM::BFGS:   highest Hinv e-value    2.23826011536438     
   GDM::      : max scaling in EWCs is          2.79193186914163     
   GDM::      : max rotation in step is        3.890702031941963E-005
   GDM::        grad.step =  -1.127033120435566E-009
   ------- Leaving GDM -- hopefully with a step in the right direction! --------
 
   33    -168.0905947131      1.31E-05  Gap = 0.00 eV  Normal BFGS step
 
   ------------------- Entering Geometric Direct Minimization ------------------
   GDM::trust : actual energy change is       -6.446327915909933E-010
   GDM::trust : predicted energy change was   -1.690549680653350E-009
   GDM::trust : updated trust radius is        0.330000000000000     
   GDM:         diagonal hessian shift is      0.000000000000000E+000
   GDM::PreWSS: input subspace size is                 19
   GDM::PreWSS: working subspace size set to           18
   GDM::PrEWSS: # of linearly dependent vectors =            0
   GDM::PrEWSS: Max dev from orthonormality =   8.397376544122537E-012
   GDM::BFGS:   lowest Hinv e-value    0.153667235111015     
   GDM::BFGS:   highest Hinv e-value    2.34869772708244     
   GDM::      : max scaling in EWCs is          2.79189416080404     
   GDM::      : max rotation in step is        4.390217274032194E-005
   GDM::        grad.step =  -2.830889630078299E-010
   ------- Leaving GDM -- hopefully with a step in the right direction! --------
 
   34    -168.0905947137      1.03E-05  Gap = 0.00 eV  Normal BFGS step
 
   ------------------- Entering Geometric Direct Minimization ------------------
   GDM::trust : actual energy change is       -1.904822966025677E-010
   GDM::trust : predicted energy change was   -4.246334445117450E-010
   GDM::trust : updated trust radius is        0.330000000000000     
   GDM:         diagonal hessian shift is      0.000000000000000E+000
   GDM::PreWSS: input subspace size is                 19
   GDM::PreWSS: working subspace size set to           18
   GDM::PrEWSS: # of linearly dependent vectors =            0
   GDM::PrEWSS: Max dev from orthonormality =   4.634851530349593E-012
   GDM::BFGS:   lowest Hinv e-value    0.155072467945116     
   GDM::BFGS:   highest Hinv e-value    3.74905534297269     
   GDM::      : max scaling in EWCs is          2.79190079938250     
   GDM::      : max rotation in step is        6.281597854119728E-005
   GDM::        grad.step =  -2.000893456544332E-010
   ------- Leaving GDM -- hopefully with a step in the right direction! --------
 
   35    -168.0905947139      7.50E-06  Gap = 0.00 eV  Normal BFGS step
 
   ------------------- Entering Geometric Direct Minimization ------------------
   GDM::trust : actual energy change is       -1.286650785914389E-010
   GDM::trust : predicted energy change was   -3.001340184816498E-010
   GDM::trust : updated trust radius is        0.330000000000000     
   GDM:         diagonal hessian shift is      0.000000000000000E+000
   GDM::PreWSS: input subspace size is                 19
   GDM::PreWSS: working subspace size set to           18
   GDM::PrEWSS: # of linearly dependent vectors =            0
   GDM::PrEWSS: Max dev from orthonormality =   2.875478848085589E-011
   GDM::BFGS:   lowest Hinv e-value    0.163207196428101     
   GDM::BFGS:   highest Hinv e-value    5.24467664241283     
   GDM::      : max scaling in EWCs is          2.79189572262601     
   GDM::      : max rotation in step is        4.079730379060441E-005
   GDM::        grad.step =  -7.846133384838745E-011
   ------- Leaving GDM -- hopefully with a step in the right direction! --------
 
   36    -168.0905947141      3.30E-06  Gap = 0.00 eV  Normal BFGS step
 
   ------------------- Entering Geometric Direct Minimization ------------------
   GDM::trust : actual energy change is       -4.686739885073621E-011
   GDM::trust : predicted energy change was   -1.176920007725812E-010
   GDM::trust : updated trust radius is        0.330000000000000     
   GDM:         diagonal hessian shift is      0.000000000000000E+000
   GDM::PreWSS: input subspace size is                 19
   GDM::PreWSS: working subspace size set to           17
   GDM::PrEWSS: # of linearly dependent vectors =            0
   GDM::PrEWSS: Max dev from orthonormality =   9.818069968137166E-012
   GDM::BFGS:   lowest Hinv e-value    0.218790149033737     
   GDM::BFGS:   highest Hinv e-value    5.36970177015146     
   GDM::      : max scaling in EWCs is          2.79189958894865     
   GDM::      : max rotation in step is        1.108062697607033E-005
   GDM::        grad.step =  -1.842193519575193E-011
   ------- Leaving GDM -- hopefully with a step in the right direction! --------
 
   37    -168.0905947141      1.33E-06  Gap = 0.00 eV  Normal BFGS step
 
   ------------------- Entering Geometric Direct Minimization ------------------
   GDM::trust : actual energy change is       -1.068656274583191E-011
   GDM::trust : predicted energy change was   -2.763290279362790E-011
   GDM::trust : updated trust radius is        0.330000000000000     
   GDM:         diagonal hessian shift is      0.000000000000000E+000
   GDM::PreWSS: input subspace size is                 18
   GDM::PreWSS: working subspace size set to           18
   GDM::PrEWSS: # of linearly dependent vectors =            1
   GDM::PrEWSS: Max dev from orthonormality =   2.336516050083226E-011
   GDM::BFGS:   lowest Hinv e-value    0.218730050666807     
   GDM::BFGS:   highest Hinv e-value    5.14060377365514     
   GDM::      : max scaling in EWCs is          2.79190003021130     
   GDM::      : max rotation in step is       -2.065954451903620E-006
   GDM::        grad.step =  -2.719963066745781E-012
   ------- Leaving GDM -- hopefully with a step in the right direction! --------
 
   38    -168.0905947141      5.21E-07  Gap = 0.00 eV  Normal BFGS step
 
   ------------------- Entering Geometric Direct Minimization ------------------
   GDM::trust : actual energy change is       -7.958078640513122E-013
   GDM::trust : predicted energy change was   -4.079944600118674E-012
   GDM::trust : updated trust radius is        0.330000000000000     
   GDM:         diagonal hessian shift is      0.000000000000000E+000
   GDM::PreWSS: input subspace size is                 19
   GDM::PreWSS: working subspace size set to           18
   GDM::PrEWSS: # of linearly dependent vectors =            1
   GDM::PrEWSS: Max dev from orthonormality =   2.439693586042679E-011
   GDM::BFGS:   lowest Hinv e-value    0.229327233778907     
   GDM::BFGS:   highest Hinv e-value    5.11328236822423     
   GDM::      : max scaling in EWCs is          2.79190014887329     
   GDM::      : max rotation in step is       -6.625659257694769E-007
   GDM::        grad.step =  -6.619597332916936E-013
   ------- Leaving GDM -- hopefully with a step in the right direction! --------
 
   39    -168.0905947141      3.22E-07  Gap = 0.00 eV  Normal BFGS step
 
   ------------------- Entering Geometric Direct Minimization ------------------
   GDM::trust : actual energy change is       -3.126388037344441E-013
   GDM::trust : predicted energy change was   -9.929395999375404E-013
   GDM::trust : updated trust radius is        0.330000000000000     
   GDM:         diagonal hessian shift is      0.000000000000000E+000
   GDM::PreWSS: input subspace size is                 19
   GDM::PreWSS: working subspace size set to           18
   GDM::PrEWSS: # of linearly dependent vectors =            0
   GDM::PrEWSS: Max dev from orthonormality =   6.447333986137060E-011
   GDM::BFGS:   lowest Hinv e-value    0.227635647962017     
   GDM::BFGS:   highest Hinv e-value    5.17059527896606     
   GDM::      : max scaling in EWCs is          2.79190041062023     
   GDM::      : max rotation in step is        3.182105297336908E-007
   GDM::        grad.step =  -2.920975214405218E-013
   ------- Leaving GDM -- hopefully with a step in the right direction! --------
 
   40    -168.0905947141      2.14E-07  Gap = -13.52 eV  Normal BFGS step
 
   ------------------- Entering Geometric Direct Minimization ------------------
   GDM::trust : actual energy change is        2.273736754432321E-013
   GDM::trust : predicted energy change was   -4.381462821607827E-013
   GDM::trust : updated trust radius is        0.108900000000000     
   GDM::WARNING energy changes are now smaller than effective accuracy.
   GDM::        calculation will continue, but THRESH should be increased
   GDM::        or SCF_CONVERGENCE decreased.
   GDM::        effective_thresh =   1.800000000000000E-010
   GDM:         diagonal hessian shift is      0.000000000000000E+000
   GDM::PreWSS: input subspace size is                 19
   GDM::PreWSS: working subspace size set to           18
   GDM::PrEWSS: # of linearly dependent vectors =            0
   GDM::PrEWSS: Max dev from orthonormality =   1.286932626437531E-011
   GDM::BFGS:   lowest Hinv e-value    0.175462836788066     
   GDM::BFGS:   highest Hinv e-value    5.14507461272953     
   GDM::      : max scaling in EWCs is          2.79190028255016     
   GDM::      : max rotation in step is        1.967957363913294E-007
   GDM::        grad.step =  -2.742319425538473E-013
   ------- Leaving GDM -- hopefully with a step in the right direction! --------
 
   41    -168.0905947141      2.99E-07  Gap = 0.00 eV  Normal BFGS step
 
   ------------------- Entering Geometric Direct Minimization ------------------
   GDM::trust : actual energy change is       -1.705302565824240E-013
   GDM::trust : predicted energy change was   -4.113479138307710E-013
   GDM::trust : updated trust radius is        0.330000000000000     
   GDM:         diagonal hessian shift is      0.000000000000000E+000
   GDM::PreWSS: input subspace size is                 19
   GDM::PreWSS: working subspace size set to           18
   GDM::PrEWSS: # of linearly dependent vectors =            0
   GDM::PrEWSS: Max dev from orthonormality =   2.061483622695093E-011
   GDM::BFGS:   lowest Hinv e-value    0.176822692465973     
   GDM::BFGS:   highest Hinv e-value    5.14917542334043     
   GDM::      : max scaling in EWCs is          2.79190004924460     
   GDM::      : max rotation in step is       -2.087832239718383E-007
   GDM::        grad.step =  -7.985132233434184E-014
   ------- Leaving GDM -- hopefully with a step in the right direction! --------
 
   42    -168.0905947141      9.83E-08  Gap = 0.00 eV  Normal BFGS step
 
   ------------------- Entering Geometric Direct Minimization ------------------
   GDM::trust : actual energy change is       -2.557953848736361E-013
   GDM::trust : predicted energy change was   -1.197769835015128E-013
   GDM::trust : updated trust radius is        0.330000000000000     
   GDM:         diagonal hessian shift is      0.000000000000000E+000
   GDM::PreWSS: input subspace size is                 19
   GDM::PreWSS: working subspace size set to           18
   GDM::PrEWSS: # of linearly dependent vectors =            0
   GDM::PrEWSS: Max dev from orthonormality =   4.804155771115370E-010
   GDM::BFGS:   lowest Hinv e-value    0.182349257166563     
   GDM::BFGS:   highest Hinv e-value    5.15121897605084     
   GDM::      : max scaling in EWCs is          2.79190031156947     
   GDM::      : max rotation in step is        6.577127308988282E-008
   GDM::        grad.step =  -2.459950996525891E-014
   ------- Leaving GDM -- hopefully with a step in the right direction! --------
 
   43    -168.0905947141      5.46E-08  Gap = 0.00 eV  Normal BFGS step
 
   ------------------- Entering Geometric Direct Minimization ------------------
   GDM::trust : actual energy change is        1.421085471520200E-013
   GDM::trust : predicted energy change was   -3.689926494788837E-014
   GDM::trust : updated trust radius is        0.108900000000000     
   GDM::WARNING energy changes are now smaller than effective accuracy.
   GDM::        calculation will continue, but THRESH should be increased
   GDM::        or SCF_CONVERGENCE decreased.
   GDM::        effective_thresh =   4.804155771115370E-010
   GDM:         diagonal hessian shift is      0.000000000000000E+000
   GDM::PreWSS: input subspace size is                 19
   GDM::PreWSS: working subspace size set to           18
   GDM::PrEWSS: # of linearly dependent vectors =            0
   GDM::PrEWSS: Max dev from orthonormality =   4.493266522742623E-010
   GDM::BFGS:   lowest Hinv e-value    0.172664763512337     
   GDM::BFGS:   highest Hinv e-value    5.13404997300360     
   GDM::      : max scaling in EWCs is          2.79190019920727     
   GDM::      : max rotation in step is        4.163594933561728E-008
   GDM::        grad.step =  -6.249785308891371E-015
   ------- Leaving GDM -- hopefully with a step in the right direction! --------
 
   44    -168.0905947141      2.49E-08  Gap = 0.00 eV  Normal BFGS step
 
   ------------------- Entering Geometric Direct Minimization ------------------
   GDM::trust : actual energy change is        1.705302565824240E-013
   GDM::trust : predicted energy change was   -9.374677963337053E-015
   GDM::trust : updated trust radius is        0.108900000000000     
   GDM::WARNING energy changes are now smaller than effective accuracy.
   GDM::        calculation will continue, but THRESH should be increased
   GDM::        or SCF_CONVERGENCE decreased.
   GDM::        effective_thresh =   4.804155771115370E-010
   GDM:         diagonal hessian shift is      0.000000000000000E+000
   GDM::PreWSS: input subspace size is                 19
   GDM::PreWSS: working subspace size set to           17
   GDM::PrEWSS: # of linearly dependent vectors =            0
   GDM::PrEWSS: Max dev from orthonormality =   3.727476313719613E-011
   GDM::BFGS:   lowest Hinv e-value    0.168740005369931     
   GDM::BFGS:   highest Hinv e-value    5.15303093401209     
   GDM::      : max scaling in EWCs is          2.79190021241444     
   GDM::      : max rotation in step is       -1.579750872559627E-008
   GDM::        grad.step =  -4.374110753197922E-016
   ------- Leaving GDM -- hopefully with a step in the right direction! --------
 
   45    -168.0905947141      6.02E-09 Convergence criterion met
 ---------------------------------------
 One-Electron    Energy =  -420.5138119325
 Total Coulomb   Energy =   192.0565670877
 Alpha Exchange  Energy =    -2.0872641205
 Beta  Exchange  Energy =    -1.7181798299
 DFT   Exchange  Energy =   -15.3830358405
 DFT Correlation Energy =    -1.3213991293
 Nuclear Repu.   Energy =    80.8765290510
 Nuclear Attr.   Energy =  -543.7782745745
 Kinetic         Energy =   123.2644626420
 <S^2> = 6.0140
 SCF time:  CPU 127.06 s  wall 24.12 s
 SCF   energy in the final basis set = -168.0905947141
 Total energy in the final basis set = -168.0905947141
 
 --------------------------------------------------------------
 
                    Orbital Energies (a.u.)
 --------------------------------------------------------------
 
 Alpha MOs
 -- Occupied --
-19.121  -2.082  -1.982  -1.381  -1.252  -1.252  -1.189  -1.189
 -1.127  -0.840  -0.335  -0.335  -0.314  -0.228  -0.228  -0.214
 -0.182  -0.182
 -- Virtual --
 -0.092  -0.055  -0.055  -0.035  -0.035  -0.029   0.020   0.023
  0.023   0.053   0.062   0.062   0.073   0.098   0.098   0.131
  0.171   0.181   0.181   0.207   0.207   0.216   0.216   0.248
  0.248   0.248   0.276   0.301   0.301   0.407   0.437   0.491
  0.491   1.217   1.217   1.287   1.632   1.820   1.820   1.879
  1.879   2.013  14.527  18.533
 
 Beta MOs
 -- Occupied --
-19.109  -2.047  -1.946  -1.345  -1.204  -1.204  -1.143  -1.143
 -1.097  -0.805  -0.299  -0.286  -0.286  -0.185
 -- Virtual --
 -0.120  -0.120  -0.089  -0.089  -0.080  -0.042  -0.042  -0.012
  0.010   0.010   0.025   0.031   0.031   0.057   0.077   0.077
  0.079   0.113   0.113   0.150   0.179   0.202   0.202   0.219
  0.219   0.245   0.245   0.252   0.261   0.261   0.280   0.310
  0.310   0.421   0.453   0.500   0.500   1.242   1.242   1.293
  1.647   1.851   1.851   1.894   1.894   2.027  14.530  18.534
 --------------------------------------------------------------
 
          Ground-State Mulliken Net Atomic Charges

     Atom                 Charge (a.u.)    Spin (a.u.)
  --------------------------------------------------------
      1 Zr                    0.587903       1.102802
      2 Zr                   -0.095370       2.406670
      3 O                    -0.492532       0.490527
  --------------------------------------------------------
  Sum of atomic charges =     0.000000
  Sum of spin   charges =     4.000000

 -----------------------------------------------------------------
                    Cartesian Multipole Moments
 -----------------------------------------------------------------
    Charge (ESU x 10^10)
                 0.0000
    Dipole Moment (Debye)
         X      -6.5324      Y       0.0016      Z       0.0000
       Tot       6.5324
    Quadrupole Moments (Debye-Ang)
        XX     -54.3804     XY       0.0108     YY     -51.6317
        XZ       0.0000     YZ       0.0000     ZZ     -51.6317
    Octopole Moments (Debye-Ang^2)
       XXX     -75.5476    XXY       0.0188    XYY      -1.3675
       YYY       0.0005    XXZ       0.0000    XYZ       0.0000
       YYZ       0.0000    XZZ      -1.3675    YZZ       0.0002
       ZZZ       0.0000
    Hexadecapole Moments (Debye-Ang^3)
      XXXX    -621.8518   XXXY       0.0770   XXYY    -109.7198
      XYYY       0.0254   YYYY    -114.7988   XXXZ       0.0000
      XXYZ       0.0000   XYYZ       0.0000   YYYZ       0.0000
      XXZZ    -109.7198   XYZZ       0.0085   YYZZ     -38.2663
      XZZZ       0.0000   YZZZ       0.0000   ZZZZ    -114.7987
 -----------------------------------------------------------------
Archival summary:
1\1\hpc3455\SP\ProcedureUnspecified\BasisUnspecified\r21(+,5)\liqiuy\FriJan1719:31:042020FriJan1719:31:042020\0\\#,ProcedureUnspecified,BasisUnspecified,\\56,5\Zr\O,1,1.77987\Zr,1,1.96541,2,179.946\\\@

 Total job time:  25.26s(wall), 133.71s(cpu) 
 Fri Jan 17 19:31:04 2020

        *************************************************************
        *                                                           *
        *  Thank you very much for using Q-Chem.  Have a nice day.  *
        *                                                           *
        *************************************************************


0 sent ACK to 0 
now end server 0 ... 
cleanup process ... done

Running Job 2 of 2 ZrOx.in
qchem ZrOx.in_3406.1 /tmp/5732644.priya/ZrOx.save/ 1
/usr/usc/qchem/4.4/bin/mpi/mpirun_qchem -machinefile /usr/usc/qchem/4.4/bin/mpi/machines -np 1 /usr/usc/qchem/4.4/exe/qcprog.exe ZrOx.in_3406.1 /tmp/5732644.priya/ZrOx.save/

Process 0 of 1 is on hpc3455.hpcc.usc.edu - thread support 0
initial socket setup ...start
initial socket setup ...done 
now start server 0 ... 
Check license passed

                  Welcome to Q-Chem
     A Quantum Leap Into The Future Of Chemistry


 Q-Chem 4.4, Q-Chem, Inc., Pleasanton, CA (2016)

 Y. Shao,  Z. Gan,  E. Epifanovsky,  A. T. B. Gilbert,  M. Wormit,  
 J. Kussmann,  A. W. Lange,  A. Behn,  J. Deng,  X. Feng,  D. Ghosh,  
 M. Goldey,  P. R. Horn,  L. D. Jacobson,  I. Kaliman,  F.Rob,  
 R. Z. Khaliullin,  T. Kus,  A. Landau,  J. Liu,  E. I. Proynov,  Y. M. Rhee,  
 R. M. Richard,  M. A. Rohrdanz,  R. P. Steele,  E. J. Sundstrom,  
 H. L. Woodcock III,  P. M. Zimmerman,  D. Zuev,  B. Albrecht,  E. Alguire,  
 B. Austin,  S. A. Baeppler,  G. J. O. Beran,  Y. A. Bernard,  E. Berquist,  
 K. Brandhorst,  K. B. Bravaya,  S. T. Brown,  D. Casanova,  C.-M. Chang,  
 Y. Chen,  S. H. Chien,  K. D. Closser,  M. P. Coons,  D. L. Crittenden,  
 S. Dasgupta,  M. Diedenhofen,  R. A. DiStasio Jr.,  H. Do,  A. D. Dutoi,  
 R. G. Edgar,  P.-T. Fang,  S. Fatehi,  Q. Feng,  L. Fusti-Molnar,  
 A. Ghysels,  A. Golubeva-Zadorozhnaya,  J. Gomes,  A. Gunina,  
 M. W. D. Hanson-Heine,  P. H. P. Harbach,  A. W. Hauser,  E. G. Hohenstein,  
 Z. C. Holden,  K. Hui,  T.-C. Jagau,  H. Ji,  B. Kaduk,  K. Khistyaev,  
 Jaehoon Kim,  Jihan Kim,  R. A. King,  P. Klunzinger,  D. Kosenkov,  
 T. Kowalczyk,  C. M. Krauter,  A. Kunitsa,  K. U. Lao,  A. Laurent,  
 K. V. Lawler,  D. Lefrancois,  S. Lehtola,  S. V. Levchenko,  C. Y. Lin,  
 Y.-S. Lin,  F. Liu,  E. Livshits,  R. C. Lochan,  A. Luenser,  P. Manohar,  
 S. F. Manzer,  S.-P. Mao,  Y. Mao,  N. Mardirossian,  A. V. Marenich,  
 L. A. Martinez-Martinez,  S. A. Maurer,  N. J. Mayhall,  J.-M. Mewes,  
 A. F. Morrison,  K. Nanda,  C. M. Oana,  R. Olivares-Amaya,  D. P. O'Neill,  
 J. A. Parkhill,  T. M. Perrine,  R. Peverati,  P. A. Pieniazek,  F. Plasser,  
 A. Prociuk,  D. R. Rehn,  E. Rosta,  N. J. Russ,  N. Sergueev,  
 S. M. Sharada,  S. Sharma,  D. W. Small,  A. Sodt,  T. Stauch,  T. Stein,  
 D. Stuck,  Y.-C. Su,  A. J. W. Thom,  T. Tsuchimochi,  L. Vogt,  O. Vydrov,  
 T. Wang,  M. A. Watson,  J. Wenzel,  A. White,  C. F. Williams,  
 V. Vanovschi,  S. Yeganeh,  S. R. Yost,  Z.-Q. You,  I. Y. Zhang,  X. Zhang,  
 Y. Zhao,  B. R. Brooks,  G. K. L. Chan,  D. M. Chipman,  C. J. Cramer,  
 W. A. Goddard III,  M. S. Gordon,  W. J. Hehre,  A. Klamt,  
 H. F. Schaefer III,  M. W. Schmidt,  C. D. Sherrill,  D. G. Truhlar,  
 A. Warshel,  X. Xu,  A. Aspuru-Guzik,  R. Baer,  A. T. Bell,  N. A. Besley,  
 J.-D. Chai,  A. Dreuw,  B. D. Dunietz,  T. R. Furlani,  S. R. Gwaltney,  
 C.-P. Hsu,  Y. Jung,  J. Kong,  D. S. Lambrecht,  W. Liang,  C. Ochsenfeld,  
 V. A. Rassolov,  L. V. Slipchenko,  J. E. Subotnik,  T. Van Voorhis,  
 J. M. Herbert,  A. I. Krylov,  P. M. W. Gill,  M. Head-Gordon

 Contributors to earlier versions of Q-Chem not listed above: 
 R. D. Adamson,  J. Baker,  E. F. C. Byrd,  A. K. Chakraborty,  C.-L. Cheng,  
 H. Dachsel,  R. J. Doerksen,  G. Hawkins,  A. Heyden,  S. Hirata,  
 G. Kedziora,  F. J. Keil,  C. Kelley,  P. P. Korambath,  W. Kurlancheek,  
 A. M. Lee,  M. S. Lee,  D. Liotard,  I. Lotan,  P. E. Maslen,  N. Nair,  
 D. Neuhauser,  R. Olson,  B. Peters,  J. Ritchie,  N. E. Schultz,  
 N. Shenvi,  A. C. Simmonett,  K. S. Thanthiriwatte,  Q. Wu,  W. Zhang

 Please cite Q-Chem as follows:
 Y. Shao et al., Mol. Phys. 113, 184-215 (2015)
 DOI: 10.1080/00268976.2014.952696

 Q-Chem 4.4.1 for Intel X86 Linux

 Parts of Q-Chem use Armadillo 5.200.1 (Boston Tea Smuggler).
 http://arma.sourceforge.net/

 Q-Chem begins on Fri Jan 17 19:31:07 2020  

Host: 
0

     Scratch files written to /tmp/5732644.priya/ZrOx.save//
 Jul2716 11668_ 21447  21445 5558   
 Parallel job on  1  processors
Processing $rem in /usr/usc/qchem/4.4/config/preferences.
 MEM_TOTAL  2000 
The previous job contains 0 fragments, simply inherited here

Checking the input file for inconsistencies... 	...done.

--------------------------------------------------------------
User input:
--------------------------------------------------------------

$comment
-----------------------
A GEOMETRY OPTIMIZATION
-----------------------
$end

$molecule
READ
$end

$rem
JOBTYPE   OPT
METHOD   B3LYP
BASIS   GEN
ECP   GEN
SCF_GUESS   READ
MAX_SCF_CYCLES   200
SCF_CONVERGENCE 8
SCF_PRINT 1
PDB_PRINT 2
THRESH 14
VARTHRESH 14
INCDFT FALSE
SYMMETRY False
Sym_ignore True
SCF_ALGORITHM GDM
XC_GRID 000128000302
GEOM_OPT_MAX_CYCLES 200
DFT_D           EMPIRICAL_GRIMME3
DFT_D3_S6       1000
DFT_D3_RS6     1261
DFT_D3_S8      1703
DFT_D3_3BODY    FALSE
SCF_PRINT 1
PDB_PRINT 2
$end

$basis
O
6-31+G**
****
S
6-31+G**
****
Zr
LanL2DZ
****
$end

$ecp
Zr
LanL2DZ
****
$end

--------------------------------------------------------------
 ----------------------------------------------------------------
             Standard Nuclear Orientation (Angstroms)
    I     Atom           X                Y                Z
 ----------------------------------------------------------------
    1      Zr      0.7415400000     0.0003200000     0.0000000000
    2      Zr     -1.2238700000    -0.0001500000     0.0000000000
    3      O       2.5214100000    -0.0009300000     0.0000000000
 ----------------------------------------------------------------
 Nuclear Repulsion Energy =    80.8765290483 hartrees
 There are       18 alpha and       14 beta electrons

 Q-Chem warning in module /home/scratch/svnadmin/11668_zgan/qchem/forms1/BasisType.C, line 1419:

 Setting pure/cartesian flag to 2111 for general basis


 Requested basis set is non-standard
 There are 21 shells and 62 basis functions

 Total QAlloc Memory Limit   2000 MB
 Mega-Array Size        61 MB
 MEM_STATIC part        62 MB
 A cutoff of  1.0D-14 yielded    231 shell pairs
 There are      2039 function pairs (      2389 Cartesian)
 
 -------------------------------------------------------
 OpenMP Integral Computing Module                       
 Release: version 1.0, May 2013, Q-Chem Inc. Pittsburgh 
 -------------------------------------------------------
 Integral Job Info:
 Integral job number is                      11
 Integral operator is                         1
 short-range coefficients                     0
 long-range coefficients              100000000
 Omega coefficients                           0
 if combine SR and LR in K                    0
 Integral screening is                        0
 Integral computing path is                   2
 max size of driver memory is            800000
 size of driver memory is                593474
 size of scratch memory is             11771240
 max col of scratch BK array               1296
 max len of scratch array in speh3          155
 max len of scratch index in speh4           18
 max int batch size is                      520
 min int batch size is                       52
 fixed nKL is                                52
 max L of basis functions is                  2
 order of int derivative is                   0
 number of shells is                         21
 number of basis is                          67
 number of cartesian basis is                67
 number of contracted shell pairs           231
 number of primitive shell pairs           1152
 maxK2 (contraction) of shell pair           36
 max number of K2 of shell pair               1
 max number of CS2 of shell pair             10
 max number of PS2 of shell pair             72
 mem total for path MDJ                   21952
 -------------------------------------------------------
 Requested basis set is non-standard
 Compound shells will be simplified
 There are 24 shells and 62 basis functions
 A cutoff of  1.0D-14 yielded    300 shell pairs
 There are      2030 function pairs (      2380 Cartesian)
 Smallest overlap matrix eigenvalue = 1.30E-03

 Scale SEOQF with 1.000000e-01/1.000000e-01/1.000000e-01

 Standard Electronic Orientation quadrupole field applied
 Nucleus-field energy     =     0.0000000027 hartrees
 Guess MOs from SCF MO coefficient file
 Reading MOs from coefficient file
 Reading MOs from coefficient file
 An unrestricted hybrid HF-DFT SCF calculation will be
 performed using Geometric Direct Minimization
 Exchange:     0.2000 Hartree-Fock + 0.0800 Slater + 0.7200 B88
 Correlation:  0.1900 VWN1RPA + 0.8100 LYP
 Using Euler-Maclaurin-Lebedev (128,302) quadrature formula
 Dispersion:   Grimme D3
 SCF converges when RMS gradient is below 1.0E-08
 Maximum number of minimization steps = 200
 using 12 threads for integral computing 
 -------------------------------------------------------
 OpenMP BLAS3 based DFT computing Module                
 Release: version 1.0, May 2013, Q-Chem Inc. Pittsburgh 
 -------------------------------------------------------
 
   ------------------- Entering Geometric Direct Minimization ------------------
   GDM:         diagonal hessian shift is      0.000000000000000E+000
   GDM::PreWSS: input subspace size is                  1
   GDM::PreWSS: working subspace size set to            1
   GDM::PrEWSS: # of linearly dependent vectors =            0
   GDM::PrEWSS: Max dev from orthonormality =   0.000000000000000E+000
   GDM::BFGS:   lowest Hinv e-value     1.00000000000000     
   GDM::BFGS:   highest Hinv e-value    1.00000000000000     
   GDM::      : max scaling in EWCs is          2.79190022074090     
   GDM::      : max rotation in step is       -3.670355316129313E-009
   GDM::        grad.step =  -4.591409353459128E-017
   ------- Leaving GDM -- hopefully with a step in the right direction! --------
 
 ---------------------------------------
  Cycle       Energy        RMS Gradient
 ---------------------------------------
    1    -168.0905947141      2.11E-09  Gap = 0.00 eV  Normal BFGS step
 
   ------------------- Entering Geometric Direct Minimization ------------------
   GDM::trust : actual energy change is       -1.136868377216160E-013
   GDM::trust : predicted energy change was   -6.887114030188695E-017
   GDM::trust : updated trust radius is        0.330000000000000     
   GDM:         diagonal hessian shift is      0.000000000000000E+000
   GDM::PreWSS: input subspace size is                  2
   GDM::PreWSS: working subspace size set to            2
   GDM::PrEWSS: # of linearly dependent vectors =            1
   GDM::PrEWSS: Max dev from orthonormality =   2.844946500601964E-016
   GDM::BFGS:   lowest Hinv e-value    0.230399287180542     
   GDM::BFGS:   highest Hinv e-value    1.54608069432533     
   GDM::      : max scaling in EWCs is          2.79190022328439     
   GDM::      : max rotation in step is       -2.787843843278241E-009
   GDM::        grad.step =  -7.271719545001924E-017
   ------- Leaving GDM -- hopefully with a step in the right direction! --------
 
    2    -168.0905947141      7.00E-09 Convergence criterion met
 ---------------------------------------
 One-Electron    Energy =  -420.5138119244
 Total Coulomb   Energy =   192.0565670763
 Alpha Exchange  Energy =    -2.0872641206
 Beta  Exchange  Energy =    -1.7181798291
 DFT   Exchange  Energy =   -15.3830358380
 DFT Correlation Energy =    -1.3213991293
 Nuclear Repu.   Energy =    80.8765290510
 Nuclear Attr.   Energy =  -543.7782745466
 Kinetic         Energy =   123.2644626222
 <S^2> = 6.0140
 SCF time:  CPU 5.27 s  wall 0.88 s
 SCF   energy in the final basis set = -168.0905947141
 Total energy in the final basis set = -168.0905947141
 
 --------------------------------------------------------------
 
                    Orbital Energies (a.u.)
 --------------------------------------------------------------
 
 Alpha MOs
 -- Occupied --
-19.121  -2.082  -1.982  -1.381  -1.252  -1.252  -1.189  -1.189
 -1.127  -0.840  -0.335  -0.335  -0.314  -0.228  -0.228  -0.214
 -0.182  -0.182
 -- Virtual --
 -0.092  -0.055  -0.055  -0.035  -0.035  -0.029   0.020   0.023
  0.023   0.053   0.062   0.062   0.073   0.098   0.098   0.131
  0.171   0.181   0.181   0.207   0.207   0.216   0.216   0.248
  0.248   0.248   0.276   0.301   0.301   0.407   0.437   0.491
  0.491   1.217   1.217   1.287   1.632   1.820   1.820   1.879
  1.879   2.013  14.527  18.533
 
 Beta MOs
 -- Occupied --
-19.109  -2.047  -1.946  -1.345  -1.204  -1.204  -1.143  -1.143
 -1.097  -0.805  -0.299  -0.286  -0.286  -0.185
 -- Virtual --
 -0.120  -0.120  -0.089  -0.089  -0.080  -0.042  -0.042  -0.012
  0.010   0.010   0.025   0.031   0.031   0.057   0.077   0.077
  0.079   0.113   0.113   0.150   0.179   0.202   0.202   0.219
  0.219   0.245   0.245   0.252   0.261   0.261   0.280   0.310
  0.310   0.421   0.453   0.500   0.500   1.242   1.242   1.293
  1.647   1.851   1.851   1.894   1.894   2.027  14.530  18.534
 --------------------------------------------------------------
 
          Ground-State Mulliken Net Atomic Charges

     Atom                 Charge (a.u.)    Spin (a.u.)
  --------------------------------------------------------
      1 Zr                    0.587903       1.102802
      2 Zr                   -0.095370       2.406670
      3 O                    -0.492532       0.490527
  --------------------------------------------------------
  Sum of atomic charges =     0.000000
  Sum of spin   charges =     4.000000

 -----------------------------------------------------------------
                    Cartesian Multipole Moments
 -----------------------------------------------------------------
    Charge (ESU x 10^10)
                 0.0000
    Dipole Moment (Debye)
         X      -6.5324      Y       0.0016      Z       0.0000
       Tot       6.5324
    Quadrupole Moments (Debye-Ang)
        XX     -54.3804     XY       0.0108     YY     -51.6317
        XZ       0.0000     YZ       0.0000     ZZ     -51.6317
    Octopole Moments (Debye-Ang^2)
       XXX     -75.5476    XXY       0.0188    XYY      -1.3675
       YYY       0.0005    XXZ       0.0000    XYZ       0.0000
       YYZ       0.0000    XZZ      -1.3675    YZZ       0.0002
       ZZZ       0.0000
    Hexadecapole Moments (Debye-Ang^3)
      XXXX    -621.8518   XXXY       0.0770   XXYY    -109.7198
      XYYY       0.0254   YYYY    -114.7988   XXXZ       0.0000
      XXYZ       0.0000   XYYZ       0.0000   YYYZ       0.0000
      XXZZ    -109.7198   XYZZ       0.0085   YYZZ     -38.2663
      XZZZ       0.0000   YZZZ       0.0000   ZZZZ    -114.7987
 -----------------------------------------------------------------
 Calculating analytic gradient of the SCF energy
 Gradient of SCF Energy
            1           2           3
    1  -0.2967292   0.3397191  -0.0429899
    2  -0.0000891   0.0000705   0.0000186
    3  -0.0000000  -0.0000000   0.0000000
 Max gradient component =       3.397E-01
 RMS gradient           =       1.510E-01
 Gradient time:  CPU 7.00 s  wall 1.78 s
 Geometry Optimization Parameters
   NAtoms,    NIC,     NZ,  NCons,   NDum,   NFix, NCnnct, MaxDiis
        3       9       0       0       0       0       0       0


** GEOMETRY OPTIMIZATION IN DELOCALIZED INTERNAL COORDINATES **
   Searching for a Minimum

   Optimization Cycle:   1

                       Coordinates (Angstroms)
     ATOM                X               Y               Z
      1  Zr        0.7415400000    0.0003200000    0.0000000000
      2  Zr       -1.2238700000   -0.0001500000    0.0000000000
      3  O         2.5214100000   -0.0009300000    0.0000000000
   Point Group: c1    Number of degrees of freedom:     3


   Energy is   -168.090594714


 Attempting to Generate Delocalized Internal Coordinates

  ***ERROR*** Angle     2    1    3   is near-linear
              But No atom available to define colinear bend
**WARNING** Problems with Internal Coordinates
  Switching to Cartesian Coordinates

 Translations and Rotations Projected Out of Hessian

  3 Hessian modes will be used to form the next step
  Hessian Eigenvalues:
     1.000000    1.000000    1.000000

 Minimum Search - Taking Simple RFO Step
 Searching for Lamda that Minimizes Along All modes
 Value Taken    Lamda =  -0.17476360
 Calculated Step too Large.  Step scaled by  0.777806
 Step Taken.  Stepsize is  0.300000

                             Maximum     Tolerance    Cnvgd?
         Gradient           0.339719      0.000300      NO
         Displacement       0.224927      0.001200      NO
         Energy change     *********      0.000001      NO

 ----------------------------------------------------------------
             Standard Nuclear Orientation (Angstroms)
    I     Atom           X                Y                Z
 ----------------------------------------------------------------
    1      Zr      0.8455038723     0.0003512028     0.0000000000
    2      Zr     -1.3428960824    -0.0001747382     0.0000000000
    3      O       2.5364722102    -0.0009364646     0.0000000000
 ----------------------------------------------------------------
 Nuclear Repulsion Energy =    77.9576300247 hartrees
 There are       18 alpha and       14 beta electrons
 Applying Cartesian multipole field
    Component          Value
    ---------          -----
     (2,0,0)        1.00000E-11
     (0,2,0)        2.00000E-11
     (0,0,2)       -3.00000E-11
 Nucleus-field energy     =     0.0000000029 hartrees
 Requested basis set is non-standard
 There are 21 shells and 62 basis functions
 A cutoff of  1.0D-14 yielded    231 shell pairs
 There are      2039 function pairs (      2389 Cartesian)
 Requested basis set is non-standard
 Compound shells will be simplified
 There are 24 shells and 62 basis functions
 A cutoff of  1.0D-14 yielded    300 shell pairs
[...]
   GDM::BFGS:   highest Hinv e-value    2.77433825701998     
   GDM::      : max scaling in EWCs is          2.78841295136327     
   GDM::      : max rotation in step is       -1.150098374180174E-005
   GDM::        grad.step =  -7.590290553443212E-011
   ------- Leaving GDM -- hopefully with a step in the right direction! --------
 
   11    -168.2263169305      3.92E-06  Gap = 0.49 eV  Normal BFGS step
 
   ------------------- Entering Geometric Direct Minimization ------------------
   GDM::trust : actual energy change is       -3.549871507857461E-011
   GDM::trust : predicted energy change was   -1.138543583016482E-010
   GDM::trust : updated trust radius is        0.330000000000000     
   GDM:         diagonal hessian shift is      0.000000000000000E+000
   GDM::PreWSS: input subspace size is                 10
   GDM::PreWSS: working subspace size set to           10
   GDM::PrEWSS: # of linearly dependent vectors =            6
   GDM::PrEWSS: Max dev from orthonormality =   1.394844864610612E-010
   GDM::BFGS:   lowest Hinv e-value    0.212078305798721     
   GDM::BFGS:   highest Hinv e-value    2.68462186324872     
   GDM::      : max scaling in EWCs is          2.78840758249073     
   GDM::      : max rotation in step is       -3.729888387446240E-006
   GDM::        grad.step =  -1.430546952405853E-011
   ------- Leaving GDM -- hopefully with a step in the right direction! --------
 
   12    -168.2263169305      1.02E-06  Gap = 0.49 eV  Normal BFGS step
 
   ------------------- Entering Geometric Direct Minimization ------------------
   GDM::trust : actual energy change is       -8.441247700829990E-012
   GDM::trust : predicted energy change was   -2.145820428608779E-011
   GDM::trust : updated trust radius is        0.330000000000000     
   GDM:         diagonal hessian shift is      0.000000000000000E+000
   GDM::PreWSS: input subspace size is                 11
   GDM::PreWSS: working subspace size set to           11
   GDM::PrEWSS: # of linearly dependent vectors =            7
   GDM::PrEWSS: Max dev from orthonormality =   3.053144334574931E-010
   GDM::BFGS:   lowest Hinv e-value    0.211715483918264     
   GDM::BFGS:   highest Hinv e-value    2.68606994678642     
   GDM::      : max scaling in EWCs is          2.78841160656801     
   GDM::      : max rotation in step is        1.194994412196029E-006
   GDM::        grad.step =  -1.558884545027522E-012
   ------- Leaving GDM -- hopefully with a step in the right direction! --------
 
   13    -168.2263169305      3.80E-07  Gap = 0.49 eV  Normal BFGS step
 
   ------------------- Entering Geometric Direct Minimization ------------------
   GDM::trust : actual energy change is       -9.663381206337363E-013
   GDM::trust : predicted energy change was   -2.338326817541285E-012
   GDM::trust : updated trust radius is        0.330000000000000     
   GDM:         diagonal hessian shift is      0.000000000000000E+000
   GDM::PreWSS: input subspace size is                 12
   GDM::PreWSS: working subspace size set to           12
   GDM::PrEWSS: # of linearly dependent vectors =            8
   GDM::PrEWSS: Max dev from orthonormality =   3.810670737292021E-010
   GDM::BFGS:   lowest Hinv e-value    0.212097496666962     
   GDM::BFGS:   highest Hinv e-value    2.72282193244602     
   GDM::      : max scaling in EWCs is          2.78841123626649     
   GDM::      : max rotation in step is        1.338748048748880E-006
   GDM::        grad.step =  -4.560262969736158E-013
   ------- Leaving GDM -- hopefully with a step in the right direction! --------
 
   14    -168.2263169305      3.27E-07  Gap = 0.49 eV  Normal BFGS step
 
   ------------------- Entering Geometric Direct Minimization ------------------
   GDM::trust : actual energy change is       -2.842170943040401E-014
   GDM::trust : predicted energy change was   -6.840394454604241E-013
   GDM::trust : updated trust radius is        0.330000000000000     
   GDM:         diagonal hessian shift is      0.000000000000000E+000
   GDM::PreWSS: input subspace size is                 13
   GDM::PreWSS: working subspace size set to           13
   GDM::PrEWSS: # of linearly dependent vectors =            9
   GDM::PrEWSS: Max dev from orthonormality =   7.689896081020109E-010
   GDM::BFGS:   lowest Hinv e-value    0.210601663217638     
   GDM::BFGS:   highest Hinv e-value    3.78726280848377     
   GDM::      : max scaling in EWCs is          2.78841115992511     
   GDM::      : max rotation in step is        1.558510059271030E-006
   GDM::        grad.step =  -2.402756838238114E-013
   ------- Leaving GDM -- hopefully with a step in the right direction! --------
 
   15    -168.2263169305      2.67E-07  Gap = 0.49 eV  Normal BFGS step
 
   ------------------- Entering Geometric Direct Minimization ------------------
   GDM::trust : actual energy change is       -1.421085471520200E-013
   GDM::trust : predicted energy change was   -3.604135257357172E-013
   GDM::trust : updated trust radius is        0.330000000000000     
   GDM:         diagonal hessian shift is      0.000000000000000E+000
   GDM::PreWSS: input subspace size is                 14
   GDM::PreWSS: working subspace size set to           14
   GDM::PrEWSS: # of linearly dependent vectors =           10
   GDM::PrEWSS: Max dev from orthonormality =   5.056117399759863E-010
   GDM::BFGS:   lowest Hinv e-value    0.211071865982197     
   GDM::BFGS:   highest Hinv e-value    6.27064450538980     
   GDM::      : max scaling in EWCs is          2.78841104765584     
   GDM::      : max rotation in step is        2.079675264500523E-006
   GDM::        grad.step =  -2.159547714005115E-013
   ------- Leaving GDM -- hopefully with a step in the right direction! --------
 
   16    -168.2263169305      1.98E-07  Gap = 0.49 eV  Normal BFGS step
 
   ------------------- Entering Geometric Direct Minimization ------------------
   GDM::trust : actual energy change is       -1.136868377216160E-013
   GDM::trust : predicted energy change was   -3.239321571007673E-013
   GDM::trust : updated trust radius is        0.330000000000000     
   GDM:         diagonal hessian shift is      0.000000000000000E+000
   GDM::PreWSS: input subspace size is                 15
   GDM::PreWSS: working subspace size set to           15
   GDM::PrEWSS: # of linearly dependent vectors =           11
   GDM::PrEWSS: Max dev from orthonormality =   1.058641417583939E-009
   GDM::BFGS:   lowest Hinv e-value    0.211542835660210     
   GDM::BFGS:   highest Hinv e-value    9.04895772000487     
   GDM::      : max scaling in EWCs is          2.78841104946978     
   GDM::      : max rotation in step is        1.909789963387219E-006
   GDM::        grad.step =  -1.541613415405334E-013
   ------- Leaving GDM -- hopefully with a step in the right direction! --------
 
   17    -168.2263169305      1.06E-07  Gap = 0.49 eV  Normal BFGS step
 
   ------------------- Entering Geometric Direct Minimization ------------------
   GDM::trust : actual energy change is       -1.989519660128281E-013
   GDM::trust : predicted energy change was   -2.312420123108001E-013
   GDM::trust : updated trust radius is        0.330000000000000     
   GDM:         diagonal hessian shift is      0.000000000000000E+000
   GDM::PreWSS: input subspace size is                 16
   GDM::PreWSS: working subspace size set to           16
   GDM::PrEWSS: # of linearly dependent vectors =           12
   GDM::PrEWSS: Max dev from orthonormality =   2.525861186875034E-010
   GDM::BFGS:   lowest Hinv e-value    0.211442104148288     
   GDM::BFGS:   highest Hinv e-value    9.76353042707761     
   GDM::      : max scaling in EWCs is          2.78841109163898     
   GDM::      : max rotation in step is        6.949409982701894E-007
   GDM::        grad.step =  -5.684343266353261E-014
   ------- Leaving GDM -- hopefully with a step in the right direction! --------
 
   18    -168.2263169305      7.51E-08  Gap = 0.49 eV  Normal BFGS step
 
   ------------------- Entering Geometric Direct Minimization ------------------
   GDM::trust : actual energy change is       -2.273736754432321E-013
   GDM::trust : predicted energy change was   -8.526514899529890E-014
   GDM::trust : updated trust radius is        0.330000000000000     
   GDM:         diagonal hessian shift is      0.000000000000000E+000
   GDM::PreWSS: input subspace size is                 17
   GDM::PreWSS: working subspace size set to           17
   GDM::PrEWSS: # of linearly dependent vectors =           13
   GDM::PrEWSS: Max dev from orthonormality =   5.514057960231966E-010
   GDM::BFGS:   lowest Hinv e-value    0.211380840548279     
   GDM::BFGS:   highest Hinv e-value    8.78888458018631     
   GDM::      : max scaling in EWCs is          2.78841111066565     
   GDM::      : max rotation in step is       -1.274089881236641E-007
   GDM::        grad.step =  -1.116656329892241E-014
   ------- Leaving GDM -- hopefully with a step in the right direction! --------
 
   19    -168.2263169305      3.55E-08  Gap = 0.00 eV  Normal BFGS step
 
   ------------------- Entering Geometric Direct Minimization ------------------
   GDM::trust : actual energy change is        1.136868377216160E-013
   GDM::trust : predicted energy change was   -1.674984494838362E-014
   GDM::trust : updated trust radius is        0.108900000000000     
   GDM::WARNING energy changes are now smaller than effective accuracy.
   GDM::        calculation will continue, but THRESH should be increased
   GDM::        or SCF_CONVERGENCE decreased.
   GDM::        effective_thresh =   1.505271490787052E-009
   GDM:         diagonal hessian shift is      0.000000000000000E+000
   GDM::PreWSS: input subspace size is                 18
   GDM::PreWSS: working subspace size set to           16
   GDM::PrEWSS: # of linearly dependent vectors =           13
   GDM::PrEWSS: Max dev from orthonormality =   1.442096442261231E-012
   GDM::BFGS:   lowest Hinv e-value    0.260901454342289     
   GDM::BFGS:   highest Hinv e-value    9.18475774324369     
   GDM::      : max scaling in EWCs is          2.78841112236138     
   GDM::      : max rotation in step is       -8.322334275261248E-008
   GDM::        grad.step =  -6.836414754718792E-016
   ------- Leaving GDM -- hopefully with a step in the right direction! --------
 
   20    -168.2263169305      7.96E-09 Convergence criterion met
 ---------------------------------------
 One-Electron    Energy =  -388.0800141242
 Total Coulomb   Energy =   175.7200303097
 Alpha Exchange  Energy =    -2.0409019904
 Beta  Exchange  Energy =    -1.7274490034
 DFT   Exchange  Energy =   -15.1748559378
 DFT Correlation Energy =    -1.2880474808
 Nuclear Repu.   Energy =    64.3649212964
 Nuclear Attr.   Energy =  -510.1713080436
 Kinetic         Energy =   122.0912939194
 <S^2> = 6.0085
 SCF time:  CPU 52.67 s  wall 9.02 s
 SCF   energy in the final basis set = -168.2263169305
 Total energy in the final basis set = -168.2263169305
 
 --------------------------------------------------------------
 
                    Orbital Energies (a.u.)
 --------------------------------------------------------------
 
 Alpha MOs
 -- Occupied --
-19.112  -2.029  -2.026  -1.253  -1.231  -1.231  -1.230  -1.227
 -1.227  -0.830  -0.309  -0.306  -0.306  -0.205  -0.179  -0.179
 -0.170  -0.167
 -- Virtual --
 -0.103  -0.089  -0.074  -0.068  -0.065  -0.065  -0.032   0.008
  0.008   0.016   0.016   0.035   0.058   0.085   0.085   0.087
  0.119   0.119   0.169   0.172   0.200   0.200   0.201   0.226
  0.230   0.234   0.240   0.267   0.267   0.329   0.361   0.361
  0.394   1.210   1.210   1.269   1.598   1.830   1.830   1.864
  1.864   2.000   2.839  11.289
 
 Beta MOs
 -- Occupied --
-19.112  -2.003  -1.979  -1.241  -1.192  -1.192  -1.176  -1.170
 -1.170  -0.830  -0.308  -0.302  -0.302  -0.177
 -- Virtual --
 -0.086  -0.079  -0.079  -0.067  -0.064  -0.061  -0.042  -0.042
 -0.038  -0.035  -0.019   0.022   0.022   0.034   0.034   0.038
  0.064   0.095   0.097   0.097   0.131   0.131   0.193   0.194
  0.209   0.213   0.213   0.240   0.242   0.242   0.245   0.280
  0.280   0.336   0.369   0.369   0.405   1.210   1.210   1.267
  1.597   1.830   1.831   1.864   1.864   2.000   2.852  11.294
 --------------------------------------------------------------
 
          Ground-State Mulliken Net Atomic Charges

     Atom                 Charge (a.u.)    Spin (a.u.)
  --------------------------------------------------------
      1 Zr                    0.666821       1.299406
      2 Zr                   -0.003903       2.704156
      3 O                    -0.662918      -0.003561
  --------------------------------------------------------
  Sum of atomic charges =     0.000000
  Sum of spin   charges =     4.000000

 -----------------------------------------------------------------
                    Cartesian Multipole Moments
 -----------------------------------------------------------------
    Charge (ESU x 10^10)
                 0.0000
    Dipole Moment (Debye)
         X      -5.4823      Y       0.0047      Z       0.0000
       Tot       5.4823
    Quadrupole Moments (Debye-Ang)
        XX     -62.3998     XY       0.0150     YY     -52.9805
        XZ       0.0000     YZ       0.0000     ZZ     -52.9805
    Octopole Moments (Debye-Ang^2)
       XXX     -60.8056    XXY       0.0341    XYY       7.6756
       YYY      -0.0017    XXZ       0.0000    XYZ       0.0000
       YYZ       0.0000    XZZ       7.6756    YZZ      -0.0030
       ZZZ       0.0000
    Hexadecapole Moments (Debye-Ang^3)
      XXXX   -1237.0985   XXXY       0.0599   XXYY    -195.7067
      XYYY       0.0077   YYYY    -123.9993   XXXZ       0.0000
      XXYZ       0.0000   XYYZ       0.0000   YYYZ       0.0000
      XXZZ    -195.7067   XYZZ      -0.0022   YYZZ     -41.1785
      XZZZ       0.0000   YZZZ       0.0000   ZZZZ    -123.9992
 -----------------------------------------------------------------
 Calculating analytic gradient of the SCF energy
 Gradient of SCF Energy
            1           2           3
    1  -0.0002249   0.0000503   0.0001747
    2  -0.0000100   0.0000037   0.0000063
    3   0.0000000  -0.0000000  -0.0000000
 Max gradient component =       2.249E-04
 RMS gradient           =       9.648E-05
 Gradient time:  CPU 9.13 s  wall 1.54 s
 Geometry Optimization Parameters
   NAtoms,    NIC,     NZ,  NCons,   NDum,   NFix, NCnnct, MaxDiis
        3       9       0       0       0       0       0       0

 Cartesian Hessian Update
 Hessian Updated using BFGS Update


** GEOMETRY OPTIMIZATION IN CARTESIAN COORDINATES **
   Searching for a Minimum

   Optimization Cycle:   9

                       Coordinates (Angstroms)
     ATOM                X               Y               Z
      1  Zr        1.1008218065    0.0005633204    0.0000000000
      2  Zr       -1.9336938560   -0.0002367728    0.0000000000
      3  O         2.8719520495   -0.0010865476    0.0000000000
   Point Group: c1    Number of degrees of freedom:     3


   Energy is   -168.226316931


 Translations and Rotations Projected Out of Hessian

  3 Hessian modes will be used to form the next step
  Hessian Eigenvalues:
     0.044673    0.999990    1.414665

 Minimum Search - Taking Simple RFO Step
 Searching for Lamda that Minimizes Along All modes
 Value Taken    Lamda =   0.00000000
 Step Taken.  Stepsize is  0.001343

                             Maximum     Tolerance    Cnvgd?
         Gradient           0.000225      0.000300     YES
         Displacement       0.001085      0.001200     YES
         Energy change     -0.000025      0.000001      NO


                       Distance Matrix (Angstroms)
             Zr(  1)   Zr(  2)
   Zr(  2)  3.034516
   O (  3)  1.771131  4.805646
 
 Final energy is   -168.226316930519     


 ******************************
 **  OPTIMIZATION CONVERGED  **
 ******************************

                       Coordinates (Angstroms)
     ATOM                X               Y               Z
      1  Zr        1.1008218065    0.0005633204    0.0000000000
      2  Zr       -1.9336938560   -0.0002367728    0.0000000000
      3  O         2.8719520495   -0.0010865476    0.0000000000

Z-matrix Print:
$molecule
0 5
Zr
O  1 1.771131
Zr 1 3.034516 2 179.931520
$end

 
 --------------------------------------------------------------
 
                    Orbital Energies (a.u.)
 --------------------------------------------------------------
 
 Alpha MOs
 -- Occupied --
-19.112  -2.029  -2.026  -1.253  -1.231  -1.231  -1.230  -1.227
 -1.227  -0.830  -0.309  -0.306  -0.306  -0.205  -0.179  -0.179
 -0.170  -0.167
 -- Virtual --
 -0.103  -0.089  -0.074  -0.068  -0.065  -0.065  -0.032   0.008
  0.008   0.016   0.016   0.035   0.058   0.085   0.085   0.087
  0.119   0.119   0.169   0.172   0.200   0.200   0.201   0.226
  0.230   0.234   0.240   0.267   0.267   0.329   0.361   0.361
  0.394   1.210   1.210   1.269   1.598   1.830   1.830   1.864
  1.864   2.000   2.839  11.289
 
 Beta MOs
 -- Occupied --
-19.112  -2.003  -1.979  -1.241  -1.192  -1.192  -1.176  -1.170
 -1.170  -0.830  -0.308  -0.302  -0.302  -0.177
 -- Virtual --
 -0.086  -0.079  -0.079  -0.067  -0.064  -0.061  -0.042  -0.042
 -0.038  -0.035  -0.019   0.022   0.022   0.034   0.034   0.038
  0.064   0.095   0.097   0.097   0.131   0.131   0.193   0.194
  0.209   0.213   0.213   0.240   0.242   0.242   0.245   0.280
  0.280   0.336   0.369   0.369   0.405   1.210   1.210   1.267
  1.597   1.830   1.831   1.864   1.864   2.000   2.852  11.294
 --------------------------------------------------------------
 
          Ground-State Mulliken Net Atomic Charges

     Atom                 Charge (a.u.)    Spin (a.u.)
  --------------------------------------------------------
      1 Zr                    0.666821       1.299406
      2 Zr                   -0.003903       2.704156
      3 O                    -0.662918      -0.003561
  --------------------------------------------------------
  Sum of atomic charges =     0.000000
  Sum of spin   charges =     4.000000

 -----------------------------------------------------------------
                    Cartesian Multipole Moments
 -----------------------------------------------------------------
    Charge (ESU x 10^10)
                 0.0000
    Dipole Moment (Debye)
         X      -5.4823      Y       0.0047      Z       0.0000
       Tot       5.4823
    Quadrupole Moments (Debye-Ang)
        XX     -62.3998     XY       0.0150     YY     -52.9805
        XZ       0.0000     YZ       0.0000     ZZ     -52.9805
    Octopole Moments (Debye-Ang^2)
       XXX     -60.8056    XXY       0.0341    XYY       7.6756
       YYY      -0.0017    XXZ       0.0000    XYZ       0.0000
       YYZ       0.0000    XZZ       7.6756    YZZ      -0.0030
       ZZZ       0.0000
    Hexadecapole Moments (Debye-Ang^3)
      XXXX   -1237.0985   XXXY       0.0599   XXYY    -195.7067
      XYYY       0.0077   YYYY    -123.9993   XXXZ       0.0000
      XXYZ       0.0000   XYYZ       0.0000   YYYZ       0.0000
      XXZZ    -195.7067   XYZZ      -0.0022   YYZZ     -41.1785
      XZZZ       0.0000   YZZZ       0.0000   ZZZZ    -123.9992
 -----------------------------------------------------------------
Archival summary:
1\1\hpc3455\OPT\ProcedureUnspecified\BasisUnspecified\r21(+,5)\liqiuy\FriJan1719:33:332020FriJan1719:33:332020\0\\#,OPT,ProcedureUnspecified,BasisUnspecified,\\56,5\Zr\O,1,1.77113\Zr,1,3.03452,2,179.932\\\@

 Total job time:  145.93s(wall), 780.74s(cpu) 
 Fri Jan 17 19:33:33 2020

        *************************************************************
        *                                                           *
        *  Thank you very much for using Q-Chem.  Have a nice day.  *
        *                                                           *
        *************************************************************


0 sent ACK to 0 
now end server 0 ... 
cleanup process ... done
