
Running Job 1 of 2 ZrOx.in
qchem ZrOx.in_28843.0 /tmp/5732647.priya/ZrOx.save/ 1
/usr/usc/qchem/4.4/bin/mpi/mpirun_qchem -machinefile /usr/usc/qchem/4.4/bin/mpi/machines -np 1 /usr/usc/qchem/4.4/exe/qcprog.exe ZrOx.in_28843.0 /tmp/5732647.priya/ZrOx.save/

Process 0 of 1 is on hpc3922.hpcc.usc.edu - thread support 0
initial socket setup ...start
initial socket setup ...done 
now start server 0 ... 
Check license passed

                  Welcome to Q-Chem
     A Quantum Leap Into The Future Of Chemistry


 Q-Chem 4.4, Q-Chem, Inc., Pleasanton, CA (2016)

 Y. Shao,  Z. Gan,  E. Epifanovsky,  A. T. B. Gilbert,  M. Wormit,  
 J. Kussmann,  A. W. Lange,  A. Behn,  J. Deng,  X. Feng,  D. Ghosh,  
 M. Goldey,  P. R. Horn,  L. D. Jacobson,  I. Kaliman,  F.Rob,  
 R. Z. Khaliullin,  T. Kus,  A. Landau,  J. Liu,  E. I. Proynov,  Y. M. Rhee,  
 R. M. Richard,  M. A. Rohrdanz,  R. P. Steele,  E. J. Sundstrom,  
 H. L. Woodcock III,  P. M. Zimmerman,  D. Zuev,  B. Albrecht,  E. Alguire,  
 B. Austin,  S. A. Baeppler,  G. J. O. Beran,  Y. A. Bernard,  E. Berquist,  
 K. Brandhorst,  K. B. Bravaya,  S. T. Brown,  D. Casanova,  C.-M. Chang,  
 Y. Chen,  S. H. Chien,  K. D. Closser,  M. P. Coons,  D. L. Crittenden,  
 S. Dasgupta,  M. Diedenhofen,  R. A. DiStasio Jr.,  H. Do,  A. D. Dutoi,  
 R. G. Edgar,  P.-T. Fang,  S. Fatehi,  Q. Feng,  L. Fusti-Molnar,  
 A. Ghysels,  A. Golubeva-Zadorozhnaya,  J. Gomes,  A. Gunina,  
 M. W. D. Hanson-Heine,  P. H. P. Harbach,  A. W. Hauser,  E. G. Hohenstein,  
 Z. C. Holden,  K. Hui,  T.-C. Jagau,  H. Ji,  B. Kaduk,  K. Khistyaev,  
 Jaehoon Kim,  Jihan Kim,  R. A. King,  P. Klunzinger,  D. Kosenkov,  
 T. Kowalczyk,  C. M. Krauter,  A. Kunitsa,  K. U. Lao,  A. Laurent,  
 K. V. Lawler,  D. Lefrancois,  S. Lehtola,  S. V. Levchenko,  C. Y. Lin,  
 Y.-S. Lin,  F. Liu,  E. Livshits,  R. C. Lochan,  A. Luenser,  P. Manohar,  
 S. F. Manzer,  S.-P. Mao,  Y. Mao,  N. Mardirossian,  A. V. Marenich,  
 L. A. Martinez-Martinez,  S. A. Maurer,  N. J. Mayhall,  J.-M. Mewes,  
 A. F. Morrison,  K. Nanda,  C. M. Oana,  R. Olivares-Amaya,  D. P. O'Neill,  
 J. A. Parkhill,  T. M. Perrine,  R. Peverati,  P. A. Pieniazek,  F. Plasser,  
 A. Prociuk,  D. R. Rehn,  E. Rosta,  N. J. Russ,  N. Sergueev,  
 S. M. Sharada,  S. Sharma,  D. W. Small,  A. Sodt,  T. Stauch,  T. Stein,  
 D. Stuck,  Y.-C. Su,  A. J. W. Thom,  T. Tsuchimochi,  L. Vogt,  O. Vydrov,  
 T. Wang,  M. A. Watson,  J. Wenzel,  A. White,  C. F. Williams,  
 V. Vanovschi,  S. Yeganeh,  S. R. Yost,  Z.-Q. You,  I. Y. Zhang,  X. Zhang,  
 Y. Zhao,  B. R. Brooks,  G. K. L. Chan,  D. M. Chipman,  C. J. Cramer,  
 W. A. Goddard III,  M. S. Gordon,  W. J. Hehre,  A. Klamt,  
 H. F. Schaefer III,  M. W. Schmidt,  C. D. Sherrill,  D. G. Truhlar,  
 A. Warshel,  X. Xu,  A. Aspuru-Guzik,  R. Baer,  A. T. Bell,  N. A. Besley,  
 J.-D. Chai,  A. Dreuw,  B. D. Dunietz,  T. R. Furlani,  S. R. Gwaltney,  
 C.-P. Hsu,  Y. Jung,  J. Kong,  D. S. Lambrecht,  W. Liang,  C. Ochsenfeld,  
 V. A. Rassolov,  L. V. Slipchenko,  J. E. Subotnik,  T. Van Voorhis,  
 J. M. Herbert,  A. I. Krylov,  P. M. W. Gill,  M. Head-Gordon

 Contributors to earlier versions of Q-Chem not listed above: 
 R. D. Adamson,  J. Baker,  E. F. C. Byrd,  A. K. Chakraborty,  C.-L. Cheng,  
 H. Dachsel,  R. J. Doerksen,  G. Hawkins,  A. Heyden,  S. Hirata,  
 G. Kedziora,  F. J. Keil,  C. Kelley,  P. P. Korambath,  W. Kurlancheek,  
 A. M. Lee,  M. S. Lee,  D. Liotard,  I. Lotan,  P. E. Maslen,  N. Nair,  
 D. Neuhauser,  R. Olson,  B. Peters,  J. Ritchie,  N. E. Schultz,  
 N. Shenvi,  A. C. Simmonett,  K. S. Thanthiriwatte,  Q. Wu,  W. Zhang

 Please cite Q-Chem as follows:
 Y. Shao et al., Mol. Phys. 113, 184-215 (2015)
 DOI: 10.1080/00268976.2014.952696

 Q-Chem 4.4.1 for Intel X86 Linux

 Parts of Q-Chem use Armadillo 5.200.1 (Boston Tea Smuggler).
 http://arma.sourceforge.net/

 Q-Chem begins on Fri Jan 17 19:31:04 2020  

Host: 
0

     Scratch files written to /tmp/5732647.priya/ZrOx.save//
 Jul2716 11668_ 21447  21445 5558   
 Parallel job on  1  processors
Processing $rem in /usr/usc/qchem/4.4/config/preferences.
 MEM_TOTAL  2000 

Checking the input file for inconsistencies... 	...done.

--------------------------------------------------------------
User input:
--------------------------------------------------------------
$comment
--------------------------------------------------------
A SINGLE POINT DFT CALCULATION WITH BASIS SET PROJECTION
--------------------------------------------------------
$end

$molecule
0 1
Zr 0.97644 0.26707 0.00000
Zr -1.07720 0.03656 0.00000
O 0.60903 -1.54164 0.00000
$end

$rem
JOBTYPE   SP
METHOD   B3LYP
BASIS   GEN
ECP   GEN
MAX_SCF_CYCLES   200
SCF_CONVERGENCE 8
SCF_PRINT 1
PDB_PRINT 2
THRESH 14
VARTHRESH 14
INCDFT FALSE
SYMMETRY False
Sym_ignore True
SCF_ALGORITHM GDM
XC_GRID 000128000302
DFT_D           EMPIRICAL_GRIMME3
DFT_D3_S6       1000
DFT_D3_RS6     1261
DFT_D3_S8      1703
DFT_D3_3BODY    FALSE
$end

$basis
O
6-31+G**
****
S
6-31+G**
****
Zr
LanL2DZ
****
$end

$ecp
Zr
LanL2DZ
****
$end

--------------------------------------------------------------
 ----------------------------------------------------------------
             Standard Nuclear Orientation (Angstroms)
    I     Atom           X                Y                Z
 ----------------------------------------------------------------
    1      Zr      0.9764400000     0.2670700000     0.0000000000
    2      Zr     -1.0772000000     0.0365600000     0.0000000000
    3      O       0.6090300000    -1.5416400000     0.0000000000
 ----------------------------------------------------------------
 Nuclear Repulsion Energy =    86.3946559680 hartrees
 There are       16 alpha and       16 beta electrons

 Q-Chem warning in module /home/scratch/svnadmin/11668_zgan/qchem/forms1/BasisType.C, line 1419:

 Setting pure/cartesian flag to 2111 for general basis


 Requested basis set is non-standard
 There are 21 shells and 62 basis functions

 Total QAlloc Memory Limit   2000 MB
 Mega-Array Size        61 MB
 MEM_STATIC part        62 MB

                       Distance Matrix (Angstroms)
             Zr(  1)   Zr(  2)
   Zr(  2)  2.066536
   O (  3)  1.845649  2.309564
 
 A cutoff of  1.0D-14 yielded    231 shell pairs
 There are      2039 function pairs (      2389 Cartesian)
 
 -------------------------------------------------------
 OpenMP Integral Computing Module                       
 Release: version 1.0, May 2013, Q-Chem Inc. Pittsburgh 
 -------------------------------------------------------
 Integral Job Info:
 Integral job number is                      11
 Integral operator is                         1
 short-range coefficients                     0
 long-range coefficients              100000000
 Omega coefficients                           0
 if combine SR and LR in K                    0
 Integral screening is                        0
 Integral computing path is                   2
 max size of driver memory is            800000
 size of driver memory is                593474
 size of scratch memory is             11771240
 max col of scratch BK array               1296
 max len of scratch array in speh3          155
 max len of scratch index in speh4           18
 max int batch size is                      520
 min int batch size is                       52
 fixed nKL is                                52
 max L of basis functions is                  2
 order of int derivative is                   0
 number of shells is                         21
 number of basis is                          67
 number of cartesian basis is                67
 number of contracted shell pairs           231
 number of primitive shell pairs           1194
 maxK2 (contraction) of shell pair           36
 max number of K2 of shell pair               1
 max number of CS2 of shell pair             10
 max number of PS2 of shell pair             84
 mem total for path MDJ                   21952
 -------------------------------------------------------
 Requested basis set is non-standard
 Compound shells will be simplified
 There are 24 shells and 62 basis functions
 A cutoff of  1.0D-14 yielded    300 shell pairs
 There are      2030 function pairs (      2380 Cartesian)
 Smallest overlap matrix eigenvalue = 1.30E-03

 Scale SEOQF with 1.000000e-01/1.000000e-01/1.000000e-01

 Standard Electronic Orientation quadrupole field applied
 Nucleus-field energy     =     0.0000000024 hartrees
 Guess MOs from core Hamiltonian diagonalization
 A restricted hybrid HF-DFT SCF calculation will be
 performed using Geometric Direct Minimization
 Exchange:     0.2000 Hartree-Fock + 0.0800 Slater + 0.7200 B88
 Correlation:  0.1900 VWN1RPA + 0.8100 LYP
 Using Euler-Maclaurin-Lebedev (128,302) quadrature formula
 Dispersion:   Grimme D3
 SCF converges when RMS gradient is below 1.0E-08
 Maximum number of minimization steps = 200
 using 12 threads for integral computing 
 -------------------------------------------------------
 OpenMP BLAS3 based DFT computing Module                
 Release: version 1.0, May 2013, Q-Chem Inc. Pittsburgh 
 -------------------------------------------------------
 
   ------------------- Entering Geometric Direct Minimization ------------------
   GDM:         diagonal hessian shift is      0.000000000000000E+000
   GDM::PreWSS: input subspace size is                  1
   GDM::PreWSS: working subspace size set to            1
   GDM::PrEWSS: # of linearly dependent vectors =            0
   GDM::PrEWSS: Max dev from orthonormality =   0.000000000000000E+000
   GDM::BFGS:   lowest Hinv e-value     1.00000000000000     
   GDM::BFGS:   highest Hinv e-value    1.00000000000000     
   GDM::      : max scaling in EWCs is          1.41421356237309     
   GDM::      : max rotation in step is       -0.174712896021304     
   GDM::        grad.step =   -1.53886882908338     
   ------- Leaving GDM -- hopefully with a step in the right direction! --------
 
 ---------------------------------------
  Cycle       Energy        RMS Gradient
 ---------------------------------------
    1    -152.4922360620      2.09E+00  Gap = 0.00 eV  Descent step
 
   ------------------- Entering Geometric Direct Minimization ------------------
   GDM::trust : actual energy change is        -2.96034021603435     
   GDM::trust : predicted energy change was   -0.163350000000000     
   GDM::trust : updated trust radius is        0.330000000000000     
   GDM:         diagonal hessian shift is      0.000000000000000E+000
   GDM::PreWSS: input subspace size is                  2
   GDM::PreWSS: working subspace size set to            2
   GDM::PrEWSS: # of linearly dependent vectors =            0
   GDM::PrEWSS: Max dev from orthonormality =   1.089406342913435E-015
   GDM::BFGS:   lowest Hinv e-value    0.483141255225612     
   GDM::BFGS:   highest Hinv e-value    2.14603265317344     
   GDM::      : max scaling in EWCs is          1.41421356237309     
   GDM::      : max rotation in step is       -0.240903676977055     
   GDM::        grad.step =   -1.43267193044505     
   ------- Leaving GDM -- hopefully with a step in the right direction! --------
 
    2    -155.4525762781      2.62E+00  Gap = -916.05 eV  Descent step
 
   ------------------- Entering Geometric Direct Minimization ------------------
   GDM::trust : actual energy change is        -2.67639350091255     
   GDM::trust : predicted energy change was   -0.144106091233125     
   GDM::trust : updated trust radius is        0.330000000000000     
   GDM:         diagonal hessian shift is      0.000000000000000E+000
   GDM::PreWSS: input subspace size is                  3
   GDM::PreWSS: working subspace size set to            3
   GDM::PrEWSS: # of linearly dependent vectors =            0
   GDM::PrEWSS: Max dev from orthonormality =   1.381117442633695E-013
   GDM::BFGS:   lowest Hinv e-value    0.429105434496218     
   GDM::BFGS:   highest Hinv e-value    1.49296735415841     
   GDM::      : max scaling in EWCs is          1.41421356237309     
   GDM::      : max rotation in step is       -0.142050854800876     
   GDM::        grad.step =   -1.21439626319584     
   ------- Leaving GDM -- hopefully with a step in the right direction! --------
 
    3    -158.1289697790      1.64E+00  Gap = -916.05 eV  Descent step
 
   ------------------- Entering Geometric Direct Minimization ------------------
   GDM::trust : actual energy change is        -2.34269622087507     
   GDM::trust : predicted energy change was   -0.154080874160309     
   GDM::trust : updated trust radius is        0.330000000000000     
   GDM:         diagonal hessian shift is      0.000000000000000E+000
   GDM::PreWSS: input subspace size is                  4
   GDM::PreWSS: working subspace size set to            4
   GDM::PrEWSS: # of linearly dependent vectors =            0
   GDM::PrEWSS: Max dev from orthonormality =   8.414519081512140E-013
   GDM::BFGS:   lowest Hinv e-value    0.385942956706843     
   GDM::BFGS:   highest Hinv e-value    1.81559760245002     
   GDM::      : max scaling in EWCs is          1.41421356237309     
   GDM::      : max rotation in step is       -0.257502610263984     
   GDM::        grad.step =   -1.44231138525361     
   ------- Leaving GDM -- hopefully with a step in the right direction! --------
 
    4    -160.4716659999      2.41E+00  Gap = -916.05 eV  Descent step
 
   ------------------- Entering Geometric Direct Minimization ------------------
   GDM::trust : actual energy change is        -2.48902428186085     
   GDM::trust : predicted energy change was   -0.165130449582140     
   GDM::trust : updated trust radius is        0.330000000000000     
   GDM:         diagonal hessian shift is      0.000000000000000E+000
   GDM::PreWSS: input subspace size is                  5
   GDM::PreWSS: working subspace size set to            5
   GDM::PrEWSS: # of linearly dependent vectors =            0
   GDM::PrEWSS: Max dev from orthonormality =   1.865840815185038E-012
   GDM::BFGS:   lowest Hinv e-value    0.335404921800863     
   GDM::BFGS:   highest Hinv e-value    1.89959798831061     
   GDM::      : max scaling in EWCs is          1.41421356237309     
   GDM::      : max rotation in step is        0.302000240142347     
   GDM::        grad.step =  -0.960528821673676     
   ------- Leaving GDM -- hopefully with a step in the right direction! --------
 
    5    -162.9606902817      1.89E+00  Gap = -916.05 eV  Descent step
 
   ------------------- Entering Geometric Direct Minimization ------------------
   GDM::trust : actual energy change is        -1.61414138577655     
   GDM::trust : predicted energy change was   -0.190969783831593     
   GDM::trust : updated trust radius is        0.330000000000000     
   GDM:         diagonal hessian shift is      0.000000000000000E+000
   GDM::PreWSS: input subspace size is                  6
   GDM::PreWSS: working subspace size set to            6
   GDM::PrEWSS: # of linearly dependent vectors =            0
   GDM::PrEWSS: Max dev from orthonormality =   1.013703010421807E-012
   GDM::BFGS:   lowest Hinv e-value    0.308310297559465     
   GDM::BFGS:   highest Hinv e-value    2.17298002329772     
   GDM::      : max scaling in EWCs is          2.82842712474619     
   GDM::      : max rotation in step is        0.260563019078189     
   GDM::        grad.step =  -0.681736878179863     
   ------- Leaving GDM -- hopefully with a step in the right direction! --------
 
    6    -164.5748316675      5.77E-01  Gap = -916.05 eV  Descent step
 
   ------------------- Entering Geometric Direct Minimization ------------------
   GDM::trust : actual energy change is        -1.04546967792876     
   GDM::trust : predicted energy change was   -0.177546141151384     
   GDM::trust : updated trust radius is        0.330000000000000     
   GDM:         diagonal hessian shift is      0.000000000000000E+000
   GDM::PreWSS: input subspace size is                  7
   GDM::PreWSS: working subspace size set to            7
   GDM::PrEWSS: # of linearly dependent vectors =            0
   GDM::PrEWSS: Max dev from orthonormality =   1.219871426094699E-012
   GDM::BFGS:   lowest Hinv e-value    0.296796477077821     
   GDM::BFGS:   highest Hinv e-value    2.17442813241248     
   GDM::      : max scaling in EWCs is          2.82842712474619     
   GDM::      : max rotation in step is        0.274799637180453     
   GDM::        grad.step =  -0.524219448367194     
   ------- Leaving GDM -- hopefully with a step in the right direction! --------
 
    7    -165.6203013454      4.68E-01  Gap = -916.05 eV  Descent step
 
   ------------------- Entering Geometric Direct Minimization ------------------
   GDM::trust : actual energy change is       -0.866269012912028     
   GDM::trust : predicted energy change was   -0.170085810918575     
   GDM::trust : updated trust radius is        0.330000000000000     
   GDM:         diagonal hessian shift is      0.000000000000000E+000
   GDM::PreWSS: input subspace size is                  8
   GDM::PreWSS: working subspace size set to            8
   GDM::PrEWSS: # of linearly dependent vectors =            0
   GDM::PrEWSS: Max dev from orthonormality =   1.519985526332590E-012
   GDM::BFGS:   lowest Hinv e-value    0.252912311275734     
   GDM::BFGS:   highest Hinv e-value    2.80073528117230     
   GDM::      : max scaling in EWCs is          2.82842712474619     
   GDM::      : max rotation in step is        0.348353937401847     
   GDM::        grad.step =  -0.436823405216028     
   ------- Leaving GDM -- hopefully with a step in the right direction! --------
 
    8    -166.4865703583      4.94E-01  Gap = -916.05 eV  Descent step
 
   ------------------- Entering Geometric Direct Minimization ------------------
   GDM::trust : actual energy change is       -0.699731460023372     
   GDM::trust : predicted energy change was   -0.157744916742295     
   GDM::trust : updated trust radius is        0.330000000000000     
   GDM:         diagonal hessian shift is      0.000000000000000E+000
   GDM::PreWSS: input subspace size is                  9
   GDM::PreWSS: working subspace size set to            9
   GDM::PrEWSS: # of linearly dependent vectors =            0
   GDM::PrEWSS: Max dev from orthonormality =   1.054900958252780E-012
   GDM::BFGS:   lowest Hinv e-value    0.171956417329926     
   GDM::BFGS:   highest Hinv e-value    3.98531803356979     
   GDM::      : max scaling in EWCs is          2.82842712474619     
   GDM::      : max rotation in step is       -0.255283937747355     
   GDM::        grad.step =  -0.311547257873700     
   ------- Leaving GDM -- hopefully with a step in the right direction! --------
 
    9    -167.1863018184      3.25E-01  Gap = -916.05 eV  Descent step
 
   ------------------- Entering Geometric Direct Minimization ------------------
   GDM::trust : actual energy change is       -0.501044231161586     
   GDM::trust : predicted energy change was   -0.213067392741900     
   GDM::trust : updated trust radius is        0.330000000000000     
   GDM:         diagonal hessian shift is      0.000000000000000E+000
   GDM::PreWSS: input subspace size is                 10
   GDM::PreWSS: working subspace size set to           10
   GDM::PrEWSS: # of linearly dependent vectors =            0
   GDM::PrEWSS: Max dev from orthonormality =   6.798936413865420E-013
   GDM::BFGS:   lowest Hinv e-value    0.212832732231926     
   GDM::BFGS:   highest Hinv e-value    4.60039972571949     
   GDM::      : max scaling in EWCs is          2.82842712474619     
   GDM::      : max rotation in step is       -0.460712942241053     
   GDM::        grad.step =  -0.257013218384841     
   ------- Leaving GDM -- hopefully with a step in the right direction! --------
 
   10    -167.6873460495      4.03E-01  Gap = -916.05 eV  Descent step
 
   ------------------- Entering Geometric Direct Minimization ------------------
   GDM::trust : actual energy change is       -0.131456603478455     
   GDM::trust : predicted energy change was   -0.178557640864449     
   GDM::trust : updated trust radius is        0.330000000000000     
   GDM:         diagonal hessian shift is      0.000000000000000E+000
   GDM::PreWSS: input subspace size is                 11
   GDM::PreWSS: working subspace size set to           11
   GDM::PrEWSS: # of linearly dependent vectors =            0
   GDM::PrEWSS: Max dev from orthonormality =   7.762132950284162E-013
   GDM::BFGS:   lowest Hinv e-value    9.360717535763963E-002
   GDM::BFGS:   highest Hinv e-value    5.61780874932479     
   GDM::      : max scaling in EWCs is          2.82842712474619     
   GDM::      : max rotation in step is       -0.342487584893861     
   GDM::        grad.step =  -0.444597783074974     
   ------- Leaving GDM -- hopefully with a step in the right direction! --------
 
   11    -167.8188026530      5.48E-01  Gap = -916.05 eV  Descent step
 
   ------------------- Entering Geometric Direct Minimization ------------------
   GDM::trust : actual energy change is        0.192212994352076     
   GDM::trust : predicted energy change was   -0.619074636130684     
   GDM::trust : updated trust radius is        0.108900000000000     
   GDM::search:  On step            1 .  The current bracket is:
       left   : x =  0.0000E+00, e =      -167.8188026530, g = -0.5800E+00
       current: x =  0.7666E+00, e =      -167.6265896587, g =  0.8271E+00
       right  : x =  0.1000E+04, e =      1000.0000000000, g =  0.1000E+04
       next   : x =  0.2676E+00
   GDM::      : max rotation in step is       -0.119556096074360     
   ------- Leaving GDM -- hopefully with a step in the right direction! --------
 
   12    -167.6265896587      2.33E-02  Gap = -916.05 eV  Line search: overstep
 
   ------------------- Entering Geometric Direct Minimization ------------------
   GDM::trust : actual energy change is       -0.191209321198102     
   GDM::trust : predicted energy change was   -0.619074636130684     
   GDM::trust : updated trust radius is        0.108900000000000     
   GDM:         diagonal hessian shift is      0.000000000000000E+000
   GDM::PreWSS: input subspace size is                 12
   GDM::PreWSS: working subspace size set to           12
   GDM::PrEWSS: # of linearly dependent vectors =            0
   GDM::PrEWSS: Max dev from orthonormality =   1.238752156407230E-012
   GDM::BFGS:   lowest Hinv e-value    0.178762958367982     
   GDM::BFGS:   highest Hinv e-value    4.55262415469712     
   GDM::      : max scaling in EWCs is          2.82842712474619     
   GDM::      : max rotation in step is       -0.120149450872843     
   GDM::        grad.step =  -4.426615118897526E-002
   ------- Leaving GDM -- hopefully with a step in the right direction! --------
 
   13    -168.0100119742      1.59E-01  Gap = -916.05 eV  Descent step
 
   ------------------- Entering Geometric Direct Minimization ------------------
   GDM::trust : actual energy change is       -6.810458222764737E-002
   GDM::trust : predicted energy change was   -2.116786111359356E-002
   GDM::trust : updated trust radius is        0.330000000000000     
   GDM:         diagonal hessian shift is      0.000000000000000E+000
   GDM::PreWSS: input subspace size is                 13
   GDM::PreWSS: working subspace size set to           13
   GDM::PrEWSS: # of linearly dependent vectors =            0
   GDM::PrEWSS: Max dev from orthonormality =   1.243574687670446E-012
   GDM::BFGS:   lowest Hinv e-value    0.169149067157729     
   GDM::BFGS:   highest Hinv e-value    4.24385896063693     
   GDM::trust : dogleg step length is          0.330000000000000     
   GDM::      : max scaling in EWCs is          2.82842712474619     
   GDM::      : max rotation in step is       -0.430298670285036     
   GDM::        grad.step =  -9.989767963845866E-002
   ------- Leaving GDM -- hopefully with a step in the right direction! --------
 
   14    -168.0781165564      1.39E-01  Gap = -916.05 eV  Dog-leg BFGS step
 
   ------------------- Entering Geometric Direct Minimization ------------------
   GDM::trust : actual energy change is       -6.160648789392553E-002
   GDM::trust : predicted energy change was   -0.152981098387382     
   GDM::trust : updated trust radius is        0.330000000000000     
   GDM:         diagonal hessian shift is      0.000000000000000E+000
   GDM::PreWSS: input subspace size is                 14
   GDM::PreWSS: working subspace size set to           14
   GDM::PrEWSS: # of linearly dependent vectors =            0
   GDM::PrEWSS: Max dev from orthonormality =   6.108013400618617E-013
   GDM::BFGS:   lowest Hinv e-value    0.189485380525559     
   GDM::BFGS:   highest Hinv e-value    5.09333480861003     
   GDM::      : max scaling in EWCs is          2.82842712474619     
   GDM::      : max rotation in step is        0.333482014828691     
   GDM::        grad.step =  -7.371201372827429E-002
   ------- Leaving GDM -- hopefully with a step in the right direction! --------
 
   15    -168.1397230443      1.70E-01  Gap = 149244.85 eV  Normal BFGS step
 
   ------------------- Entering Geometric Direct Minimization ------------------
   GDM::trust : actual energy change is        5.949799849815918E-004
   GDM::trust : predicted energy change was   -0.110568020592411     
   GDM::trust : updated trust radius is        0.108900000000000     
   GDM::search:  On step            1 .  The current bracket is:
       left   : x =  0.0000E+00, e =      -168.1397230443, g = -0.1514E+00
       current: x =  0.4870E+00, e =      -168.1391280643, g =  0.1721E+00
       right  : x =  0.1000E+04, e =      1000.0000000000, g =  0.1000E+04
       next   : x =  0.2415E+00
   GDM::      : max rotation in step is        0.165405903447281     
   ------- Leaving GDM -- hopefully with a step in the right direction! --------
 
   16    -168.1391280643      1.46E-02  Gap = 149244.85 eV  Line search: overstep
 
   ------------------- Entering Geometric Direct Minimization ------------------
   GDM::trust : actual energy change is       -3.969343609679754E-002
   GDM::trust : predicted energy change was   -0.110568020592411     
   GDM::trust : updated trust radius is        0.108900000000000     
   GDM:         diagonal hessian shift is      0.000000000000000E+000
   GDM::PreWSS: input subspace size is                 15
   GDM::PreWSS: working subspace size set to           15
   GDM::PrEWSS: # of linearly dependent vectors =            0
   GDM::PrEWSS: Max dev from orthonormality =   2.001544763263752E-012
   GDM::BFGS:   lowest Hinv e-value    0.175319570423161     
   GDM::BFGS:   highest Hinv e-value    4.41257550004915     
   GDM::      : max scaling in EWCs is          2.82842712474619     
   GDM::      : max rotation in step is        9.937309497987160E-002
   GDM::        grad.step =  -1.568849178741361E-002
   ------- Leaving GDM -- hopefully with a step in the right direction! --------
 
   17    -168.1794164804      7.07E-02  Gap = 149244.85 eV  Descent step
 
   ------------------- Entering Geometric Direct Minimization ------------------
   GDM::trust : actual energy change is       -1.009414837727718E-002
   GDM::trust : predicted energy change was   -2.122508206171092E-002
   GDM::trust : updated trust radius is        0.330000000000000     
   GDM:         diagonal hessian shift is      0.000000000000000E+000
   GDM::PreWSS: input subspace size is                 16
   GDM::PreWSS: working subspace size set to           16
   GDM::PrEWSS: # of linearly dependent vectors =            0
   GDM::PrEWSS: Max dev from orthonormality =   7.678042229786186E-013
   GDM::BFGS:   lowest Hinv e-value    0.211421355895322     
   GDM::BFGS:   highest Hinv e-value    3.91795288552615     
   GDM::      : max scaling in EWCs is          2.82842712474619     
   GDM::      : max rotation in step is        0.103035626797756     
   GDM::        grad.step =  -9.029531723865541E-003
   ------- Leaving GDM -- hopefully with a step in the right direction! --------
 
   18    -168.1895106288      4.21E-02  Gap = 149244.85 eV  Normal BFGS step
 
   ------------------- Entering Geometric Direct Minimization ------------------
   GDM::trust : actual energy change is       -4.940369948030821E-003
   GDM::trust : predicted energy change was   -1.354429758579831E-002
   GDM::trust : updated trust radius is        0.330000000000000     
   GDM:         diagonal hessian shift is      0.000000000000000E+000
   GDM::PreWSS: input subspace size is                 17
   GDM::PreWSS: working subspace size set to           17
   GDM::PrEWSS: # of linearly dependent vectors =            0
   GDM::PrEWSS: Max dev from orthonormality =   1.614028355412245E-012
   GDM::BFGS:   lowest Hinv e-value    0.235381000687518     
   GDM::BFGS:   highest Hinv e-value    4.26309341593041     
   GDM::      : max scaling in EWCs is          2.82842712474619     
   GDM::      : max rotation in step is        4.873735663966307E-002
   GDM::        grad.step =  -4.741018018339349E-003
   ------- Leaving GDM -- hopefully with a step in the right direction! --------
 
   19    -168.1944509987      2.94E-02  Gap = 149244.85 eV  Normal BFGS step
 
   ------------------- Entering Geometric Direct Minimization ------------------
   GDM::trust : actual energy change is       -1.399260502637389E-003
   GDM::trust : predicted energy change was   -7.111527027509024E-003
   GDM::trust : updated trust radius is        0.330000000000000     
   GDM:         diagonal hessian shift is      0.000000000000000E+000
   GDM::PreWSS: input subspace size is                 18
   GDM::PreWSS: working subspace size set to           18
   GDM::PrEWSS: # of linearly dependent vectors =            0
   GDM::PrEWSS: Max dev from orthonormality =   2.798199172371341E-012
   GDM::BFGS:   lowest Hinv e-value    0.189370160385055     
   GDM::BFGS:   highest Hinv e-value    4.16334698703527     
   GDM::      : max scaling in EWCs is          2.82842712474619     
   GDM::      : max rotation in step is       -6.279275965059326E-002
   GDM::        grad.step =  -3.801932062891442E-003
   ------- Leaving GDM -- hopefully with a step in the right direction! --------
 
   20    -168.1958502592      2.52E-02  Gap = 149244.85 eV  Normal BFGS step
 
   ------------------- Entering Geometric Direct Minimization ------------------
   GDM::trust : actual energy change is       -2.019269317287353E-003
   GDM::trust : predicted energy change was   -5.702898094337164E-003
   GDM::trust : updated trust radius is        0.330000000000000     
   GDM:         diagonal hessian shift is      0.000000000000000E+000
   GDM::PreWSS: input subspace size is                 19
   GDM::PreWSS: working subspace size set to           18
   GDM::PrEWSS: # of linearly dependent vectors =            0
   GDM::PrEWSS: Max dev from orthonormality =   1.685714068333510E-012
   GDM::BFGS:   lowest Hinv e-value    0.224817710440338     
   GDM::BFGS:   highest Hinv e-value    4.01746441794436     
   GDM::      : max scaling in EWCs is          2.82842712474619     
   GDM::      : max rotation in step is       -4.614233533279246E-002
   GDM::        grad.step =  -1.732897502430040E-003
   ------- Leaving GDM -- hopefully with a step in the right direction! --------
 
   21    -168.1978695286      1.72E-02  Gap = 149244.85 eV  Normal BFGS step
 
   ------------------- Entering Geometric Direct Minimization ------------------
   GDM::trust : actual energy change is       -1.755463418476211E-003
   GDM::trust : predicted energy change was   -2.599346253645060E-003
   GDM::trust : updated trust radius is        0.330000000000000     
   GDM:         diagonal hessian shift is      0.000000000000000E+000
   GDM::PreWSS: input subspace size is                 19
   GDM::PreWSS: working subspace size set to           18
   GDM::PrEWSS: # of linearly dependent vectors =            0
   GDM::PrEWSS: Max dev from orthonormality =   4.524505770042708E-013
   GDM::BFGS:   lowest Hinv e-value    0.208773607472960     
   GDM::BFGS:   highest Hinv e-value    3.65597852177107     
   GDM::      : max scaling in EWCs is          2.82842712474619     
   GDM::      : max rotation in step is       -8.526809647903402E-002
   GDM::        grad.step =  -1.011900994436019E-003
   ------- Leaving GDM -- hopefully with a step in the right direction! --------
 
   22    -168.1996249920      1.57E-02  Gap = 149244.85 eV  Normal BFGS step
 
   ------------------- Entering Geometric Direct Minimization ------------------
   GDM::trust : actual energy change is       -6.615296619543187E-004
   GDM::trust : predicted energy change was   -1.517851491654029E-003
   GDM::trust : updated trust radius is        0.330000000000000     
   GDM:         diagonal hessian shift is      0.000000000000000E+000
   GDM::PreWSS: input subspace size is                 19
   GDM::PreWSS: working subspace size set to           18
   GDM::PrEWSS: # of linearly dependent vectors =            0
   GDM::PrEWSS: Max dev from orthonormality =   7.462780393652224E-013
   GDM::BFGS:   lowest Hinv e-value    0.220956857658340     
   GDM::BFGS:   highest Hinv e-value    5.02669021466236     
   GDM::      : max scaling in EWCs is          2.82842712474619     
   GDM::      : max rotation in step is       -0.131610842776658     
   GDM::        grad.step =  -1.249852761859840E-003
   ------- Leaving GDM -- hopefully with a step in the right direction! --------
 
   23    -168.2002865216      1.60E-02  Gap = 149244.85 eV  Normal BFGS step
 
   ------------------- Entering Geometric Direct Minimization ------------------
   GDM::trust : actual energy change is       -1.199896223795349E-003
   GDM::trust : predicted energy change was   -1.874779142789760E-003
   GDM::trust : updated trust radius is        0.330000000000000     
   GDM:         diagonal hessian shift is      0.000000000000000E+000
   GDM::PreWSS: input subspace size is                 19
   GDM::PreWSS: working subspace size set to           18
   GDM::PrEWSS: # of linearly dependent vectors =            0
   GDM::PrEWSS: Max dev from orthonormality =   5.856233900591867E-012
   GDM::BFGS:   lowest Hinv e-value    0.183583171098261     
   GDM::BFGS:   highest Hinv e-value    5.91045453763422     
   GDM::      : max scaling in EWCs is          2.82842712474619     
   GDM::      : max rotation in step is       -8.023746214369296E-002
   GDM::        grad.step =  -8.394832444848679E-004
   ------- Leaving GDM -- hopefully with a step in the right direction! --------
 
   24    -168.2014864179      1.37E-02  Gap = 149244.85 eV  Normal BFGS step
 
   ------------------- Entering Geometric Direct Minimization ------------------
   GDM::trust : actual energy change is       -7.589311730953341E-004
   GDM::trust : predicted energy change was   -1.259224866727302E-003
   GDM::trust : updated trust radius is        0.330000000000000     
   GDM:         diagonal hessian shift is      0.000000000000000E+000
   GDM::PreWSS: input subspace size is                 19
   GDM::PreWSS: working subspace size set to           18
   GDM::PrEWSS: # of linearly dependent vectors =            0
   GDM::PrEWSS: Max dev from orthonormality =   3.221150776666626E-012
   GDM::BFGS:   lowest Hinv e-value    0.166898473268116     
   GDM::BFGS:   highest Hinv e-value    6.69472744206731     
   GDM::      : max scaling in EWCs is          2.82842712474619     
   GDM::      : max rotation in step is       -4.145966126330783E-002
   GDM::        grad.step =  -2.218807129466169E-004
   ------- Leaving GDM -- hopefully with a step in the right direction! --------
 
   25    -168.2022453490      5.36E-03  Gap = 149244.85 eV  Normal BFGS step
 
   ------------------- Entering Geometric Direct Minimization ------------------
   GDM::trust : actual energy change is       -2.469741826871541E-004
   GDM::trust : predicted energy change was   -3.328210694199254E-004
   GDM::trust : updated trust radius is        0.330000000000000     
   GDM:         diagonal hessian shift is      0.000000000000000E+000
   GDM::PreWSS: input subspace size is                 19
   GDM::PreWSS: working subspace size set to           18
   GDM::PrEWSS: # of linearly dependent vectors =            0
   GDM::PrEWSS: Max dev from orthonormality =   6.425172893731457E-013
   GDM::BFGS:   lowest Hinv e-value    0.165995719881303     
   GDM::BFGS:   highest Hinv e-value    8.20318400444808     
   GDM::      : max scaling in EWCs is          2.82842712474619     
   GDM::      : max rotation in step is       -3.801047832884315E-002
   GDM::        grad.step =  -7.330103385372684E-005
   ------- Leaving GDM -- hopefully with a step in the right direction! --------
 
   26    -168.2024923232      2.19E-03  Gap = 149244.85 eV  Normal BFGS step
 
   ------------------- Entering Geometric Direct Minimization ------------------
   GDM::trust : actual energy change is       -6.847757370564977E-005
   GDM::trust : predicted energy change was   -1.099515507805903E-004
   GDM::trust : updated trust radius is        0.330000000000000     
   GDM:         diagonal hessian shift is      0.000000000000000E+000
   GDM::PreWSS: input subspace size is                 19
   GDM::PreWSS: working subspace size set to           18
   GDM::PrEWSS: # of linearly dependent vectors =            0
   GDM::PrEWSS: Max dev from orthonormality =   3.109110191523712E-012
   GDM::BFGS:   lowest Hinv e-value    0.168878210557598     
   GDM::BFGS:   highest Hinv e-value    9.28426096148004     
   GDM::      : max scaling in EWCs is          2.82842712474619     
   GDM::      : max rotation in step is       -1.093982041691180E-002
   GDM::        grad.step =  -1.527204537012817E-005
   ------- Leaving GDM -- hopefully with a step in the right direction! --------
 
   27    -168.2025608008      1.44E-03  Gap = 149244.85 eV  Normal BFGS step
 
   ------------------- Entering Geometric Direct Minimization ------------------
   GDM::trust : actual energy change is       -1.540949810419079E-005
   GDM::trust : predicted energy change was   -2.290806805519225E-005
   GDM::trust : updated trust radius is        0.330000000000000     
   GDM:         diagonal hessian shift is      0.000000000000000E+000
   GDM::PreWSS: input subspace size is                 19
   GDM::PreWSS: working subspace size set to           18
   GDM::PrEWSS: # of linearly dependent vectors =            0
   GDM::PrEWSS: Max dev from orthonormality =   3.351111055316380E-012
   GDM::BFGS:   lowest Hinv e-value    0.166580194038414     
   GDM::BFGS:   highest Hinv e-value    9.67948950713793     
   GDM::      : max scaling in EWCs is          2.82842712474619     
   GDM::      : max rotation in step is       -2.945289353677389E-003
   GDM::        grad.step =  -2.200758315398947E-006
   ------- Leaving GDM -- hopefully with a step in the right direction! --------
 
   28    -168.2025762103      5.71E-04  Gap = 149244.85 eV  Normal BFGS step
 
   ------------------- Entering Geometric Direct Minimization ------------------
   GDM::trust : actual energy change is       -2.234243254406465E-006
   GDM::trust : predicted energy change was   -3.301137473098421E-006
   GDM::trust : updated trust radius is        0.330000000000000     
   GDM:         diagonal hessian shift is      0.000000000000000E+000
   GDM::PreWSS: input subspace size is                 19
   GDM::PreWSS: working subspace size set to           18
   GDM::PrEWSS: # of linearly dependent vectors =            0
   GDM::PrEWSS: Max dev from orthonormality =   2.777250651675445E-012
   GDM::BFGS:   lowest Hinv e-value    0.171612608690617     
   GDM::BFGS:   highest Hinv e-value    10.2556136059019     
   GDM::      : max scaling in EWCs is          2.82842712474619     
   GDM::      : max rotation in step is       -2.084235936477392E-003
   GDM::        grad.step =  -4.482231616604698E-007
   ------- Leaving GDM -- hopefully with a step in the right direction! --------
 
   29    -168.2025784445      4.02E-04  Gap = 149244.85 eV  Normal BFGS step
 
   ------------------- Entering Geometric Direct Minimization ------------------
   GDM::trust : actual energy change is       -5.578288266860909E-007
   GDM::trust : predicted energy change was   -6.723347424907048E-007
   GDM::trust : updated trust radius is        0.330000000000000     
   GDM:         diagonal hessian shift is      0.000000000000000E+000
   GDM::PreWSS: input subspace size is                 19
   GDM::PreWSS: working subspace size set to           18
   GDM::PrEWSS: # of linearly dependent vectors =            0
   GDM::PrEWSS: Max dev from orthonormality =   1.294655355144059E-012
   GDM::BFGS:   lowest Hinv e-value    0.192883081241853     
   GDM::BFGS:   highest Hinv e-value    10.2471975660402     
   GDM::      : max scaling in EWCs is          2.82842712474619     
   GDM::      : max rotation in step is       -7.283117251376787E-004
   GDM::        grad.step =  -1.838815186549491E-007
   ------- Leaving GDM -- hopefully with a step in the right direction! --------
 
   30    -168.2025790024      2.20E-04  Gap = 149244.85 eV  Normal BFGS step
 
   ------------------- Entering Geometric Direct Minimization ------------------
   GDM::trust : actual energy change is       -1.987130815450655E-007
   GDM::trust : predicted energy change was   -2.758222779824238E-007
   GDM::trust : updated trust radius is        0.330000000000000     
   GDM:         diagonal hessian shift is      0.000000000000000E+000
   GDM::PreWSS: input subspace size is                 19
   GDM::PreWSS: working subspace size set to           18
   GDM::PrEWSS: # of linearly dependent vectors =            0
   GDM::PrEWSS: Max dev from orthonormality =   1.706129681977586E-011
   GDM::BFGS:   lowest Hinv e-value    0.196654725537951     
   GDM::BFGS:   highest Hinv e-value    10.3721406243465     
   GDM::      : max scaling in EWCs is          2.82842712474619     
   GDM::      : max rotation in step is        2.131556787395183E-004
   GDM::        grad.step =  -2.862537120867420E-008
   ------- Leaving GDM -- hopefully with a step in the right direction! --------
 
   31    -168.2025792011      7.47E-05  Gap = 149244.85 eV  Normal BFGS step
 
   ------------------- Entering Geometric Direct Minimization ------------------
   GDM::trust : actual energy change is       -3.269894932600437E-008
   GDM::trust : predicted energy change was   -4.293805681301129E-008
   GDM::trust : updated trust radius is        0.330000000000000     
   GDM:         diagonal hessian shift is      0.000000000000000E+000
   GDM::PreWSS: input subspace size is                 19
   GDM::PreWSS: working subspace size set to           18
   GDM::PrEWSS: # of linearly dependent vectors =            0
   GDM::PrEWSS: Max dev from orthonormality =   7.398227863664175E-012
   GDM::BFGS:   lowest Hinv e-value    0.199993084443295     
   GDM::BFGS:   highest Hinv e-value    10.4313341550254     
   GDM::      : max scaling in EWCs is          2.82842712474619     
   GDM::      : max rotation in step is        1.356150825217840E-004
   GDM::        grad.step =  -4.006309415882868E-009
   ------- Leaving GDM -- hopefully with a step in the right direction! --------
 
   32    -168.2025792338      3.57E-05  Gap = 149244.85 eV  Normal BFGS step
 
   ------------------- Entering Geometric Direct Minimization ------------------
   GDM::trust : actual energy change is       -4.003226194981835E-009
   GDM::trust : predicted energy change was   -6.009464123824301E-009
   GDM::trust : updated trust radius is        0.330000000000000     
   GDM:         diagonal hessian shift is      0.000000000000000E+000
   GDM::PreWSS: input subspace size is                 19
   GDM::PreWSS: working subspace size set to           18
   GDM::PrEWSS: # of linearly dependent vectors =            0
   GDM::PrEWSS: Max dev from orthonormality =   1.638564284256461E-012
   GDM::BFGS:   lowest Hinv e-value    0.200049906803375     
   GDM::BFGS:   highest Hinv e-value    10.3560534768475     
   GDM::      : max scaling in EWCs is          2.82842712474619     
   GDM::      : max rotation in step is        1.449951891860686E-005
   GDM::        grad.step =  -3.091824400645303E-010
   ------- Leaving GDM -- hopefully with a step in the right direction! --------
 
   33    -168.2025792378      6.25E-06  Gap = 149244.85 eV  Normal BFGS step
 
   ------------------- Entering Geometric Direct Minimization ------------------
   GDM::trust : actual energy change is       -3.034585915884236E-010
   GDM::trust : predicted energy change was   -4.637736600967955E-010
   GDM::trust : updated trust radius is        0.330000000000000     
   GDM:         diagonal hessian shift is      0.000000000000000E+000
   GDM::PreWSS: input subspace size is                 19
   GDM::PreWSS: working subspace size set to           18
   GDM::PrEWSS: # of linearly dependent vectors =            0
   GDM::PrEWSS: Max dev from orthonormality =   5.805699671013187E-012
   GDM::BFGS:   lowest Hinv e-value    0.199299449712865     
   GDM::BFGS:   highest Hinv e-value    10.9707526145345     
   GDM::      : max scaling in EWCs is          2.82842712474619     
   GDM::      : max rotation in step is        4.611354927903316E-006
   GDM::        grad.step =  -3.098862681859377E-011
   ------- Leaving GDM -- hopefully with a step in the right direction! --------
 
   34    -168.2025792381      1.86E-06  Gap = 149244.85 eV  Normal BFGS step
 
   ------------------- Entering Geometric Direct Minimization ------------------
   GDM::trust : actual energy change is       -3.177547114319168E-011
   GDM::trust : predicted energy change was   -4.648294022789066E-011
   GDM::trust : updated trust radius is        0.330000000000000     
   GDM:         diagonal hessian shift is      0.000000000000000E+000
   GDM::PreWSS: input subspace size is                 19
   GDM::PreWSS: working subspace size set to           17
   GDM::PrEWSS: # of linearly dependent vectors =            0
   GDM::PrEWSS: Max dev from orthonormality =   1.432100965592653E-012
   GDM::BFGS:   lowest Hinv e-value    0.199482269246203     
   GDM::BFGS:   highest Hinv e-value    11.0766305833660     
   GDM::      : max scaling in EWCs is          2.82842712474619     
   GDM::      : max rotation in step is        1.096333889832093E-006
   GDM::        grad.step =  -1.816427377592880E-012
   ------- Leaving GDM -- hopefully with a step in the right direction! --------
 
   35    -168.2025792381      4.91E-07  Gap = 149244.85 eV  Normal BFGS step
 
   ------------------- Entering Geometric Direct Minimization ------------------
   GDM::trust : actual energy change is       -1.790567694115452E-012
   GDM::trust : predicted energy change was   -2.724641066389319E-012
   GDM::trust : updated trust radius is        0.330000000000000     
   GDM:         diagonal hessian shift is      0.000000000000000E+000
   GDM::PreWSS: input subspace size is                 18
   GDM::PreWSS: working subspace size set to           16
   GDM::PrEWSS: # of linearly dependent vectors =            0
   GDM::PrEWSS: Max dev from orthonormality =   2.776799623571691E-012
   GDM::BFGS:   lowest Hinv e-value    0.207452956032480     
   GDM::BFGS:   highest Hinv e-value    11.1774376990080     
   GDM::      : max scaling in EWCs is          2.82842712474619     
   GDM::      : max rotation in step is        1.774377273398304E-006
   GDM::        grad.step =  -3.123189391155375E-013
   ------- Leaving GDM -- hopefully with a step in the right direction! --------
 
   36    -168.2025792381      1.15E-07  Gap = 149244.85 eV  Normal BFGS step
 
   ------------------- Entering Geometric Direct Minimization ------------------
   GDM::trust : actual energy change is       -1.136868377216160E-013
   GDM::trust : predicted energy change was   -4.684784086733063E-013
   GDM::trust : updated trust radius is        0.330000000000000     
   GDM:         diagonal hessian shift is      0.000000000000000E+000
   GDM::PreWSS: input subspace size is                 17
   GDM::PreWSS: working subspace size set to           17
   GDM::PrEWSS: # of linearly dependent vectors =            1
   GDM::PrEWSS: Max dev from orthonormality =   1.217220768623406E-012
   GDM::BFGS:   lowest Hinv e-value    0.205228672313467     
   GDM::BFGS:   highest Hinv e-value    13.0255300598736     
   GDM::      : max scaling in EWCs is          2.82842712474619     
   GDM::      : max rotation in step is        1.064977339259141E-006
   GDM::        grad.step =  -2.033810549250368E-013
   ------- Leaving GDM -- hopefully with a step in the right direction! --------
 
   37    -168.2025792381      2.15E-07  Gap = 149244.85 eV  Normal BFGS step
 
   ------------------- Entering Geometric Direct Minimization ------------------
   GDM::trust : actual energy change is       -2.557953848736361E-013
   GDM::trust : predicted energy change was   -3.050715823875551E-013
   GDM::trust : updated trust radius is        0.330000000000000     
   GDM:         diagonal hessian shift is      0.000000000000000E+000
   GDM::PreWSS: input subspace size is                 18
   GDM::PreWSS: working subspace size set to           18
   GDM::PrEWSS: # of linearly dependent vectors =            2
   GDM::PrEWSS: Max dev from orthonormality =   3.484046384727435E-012
   GDM::BFGS:   lowest Hinv e-value    0.200674854071764     
   GDM::BFGS:   highest Hinv e-value    11.3891876575461     
   GDM::      : max scaling in EWCs is          2.82842712474619     
   GDM::      : max rotation in step is       -1.094981098716169E-006
   GDM::        grad.step =  -1.565318974578349E-013
   ------- Leaving GDM -- hopefully with a step in the right direction! --------
 
   38    -168.2025792381      1.96E-07  Gap = 149244.85 eV  Normal BFGS step
 
   ------------------- Entering Geometric Direct Minimization ------------------
   GDM::trust : actual energy change is       -5.684341886080801E-014
   GDM::trust : predicted energy change was   -2.347978461867525E-013
   GDM::trust : updated trust radius is        0.330000000000000     
   GDM:         diagonal hessian shift is      0.000000000000000E+000
   GDM::PreWSS: input subspace size is                 19
   GDM::PreWSS: working subspace size set to           14
   GDM::PrEWSS: # of linearly dependent vectors =            0
   GDM::PrEWSS: Max dev from orthonormality =   9.447100220161264E-013
   GDM::BFGS:   lowest Hinv e-value    0.226368974095654     
   GDM::BFGS:   highest Hinv e-value    10.4597048756152     
   GDM::      : max scaling in EWCs is          2.82842712474619     
   GDM::      : max rotation in step is        2.331393601943098E-007
   GDM::        grad.step =  -8.696805892233050E-015
   ------- Leaving GDM -- hopefully with a step in the right direction! --------
 
   39    -168.2025792381      2.09E-08  Gap = 149244.85 eV  Normal BFGS step
 
   ------------------- Entering Geometric Direct Minimization ------------------
   GDM::trust : actual energy change is        2.842170943040401E-014
   GDM::trust : predicted energy change was   -1.304520883834958E-014
   GDM::trust : updated trust radius is        0.108900000000000     
   GDM::WARNING energy changes are now smaller than effective accuracy.
   GDM::        calculation will continue, but THRESH should be increased
   GDM::        or SCF_CONVERGENCE decreased.
   GDM::        effective_thresh =   1.600000000000000E-010
   GDM:         diagonal hessian shift is      0.000000000000000E+000
   GDM::PreWSS: input subspace size is                 15
   GDM::PreWSS: working subspace size set to           15
   GDM::PrEWSS: # of linearly dependent vectors =            1
   GDM::PrEWSS: Max dev from orthonormality =   1.086967321706211E-012
   GDM::BFGS:   lowest Hinv e-value    0.223590880062756     
   GDM::BFGS:   highest Hinv e-value    10.4986839653011     
   GDM::      : max scaling in EWCs is          2.82842712474619     
   GDM::      : max rotation in step is       -6.162398341366442E-008
   GDM::        grad.step =  -4.091500946813429E-015
   ------- Leaving GDM -- hopefully with a step in the right direction! --------
 
   40    -168.2025792381      3.05E-08  Gap = 149244.85 eV  Normal BFGS step
 
   ------------------- Entering Geometric Direct Minimization ------------------
   GDM::trust : actual energy change is       -1.705302565824240E-013
   GDM::trust : predicted energy change was   -6.137251420220145E-015
   GDM::trust : updated trust radius is        0.330000000000000     
   GDM:         diagonal hessian shift is      0.000000000000000E+000
   GDM::PreWSS: input subspace size is                 16
   GDM::PreWSS: working subspace size set to           16
   GDM::PrEWSS: # of linearly dependent vectors =            2
   GDM::PrEWSS: Max dev from orthonormality =   3.429256878462184E-012
   GDM::BFGS:   lowest Hinv e-value    0.194076882166145     
   GDM::BFGS:   highest Hinv e-value    10.4937607029895     
   GDM::      : max scaling in EWCs is          2.82842712474619     
   GDM::      : max rotation in step is        3.650073213176832E-008
   GDM::        grad.step =  -4.033671091652395E-015
   ------- Leaving GDM -- hopefully with a step in the right direction! --------
 
   41    -168.2025792381      3.69E-08  Gap = 149244.85 eV  Normal BFGS step
 
   ------------------- Entering Geometric Direct Minimization ------------------
   GDM::trust : actual energy change is        1.421085471520200E-013
   GDM::trust : predicted energy change was   -6.050506637478592E-015
   GDM::trust : updated trust radius is        0.108900000000000     
   GDM::WARNING energy changes are now smaller than effective accuracy.
   GDM::        calculation will continue, but THRESH should be increased
   GDM::        or SCF_CONVERGENCE decreased.
   GDM::        effective_thresh =   1.600000000000000E-010
   GDM:         diagonal hessian shift is      0.000000000000000E+000
   GDM::PreWSS: input subspace size is                 17
   GDM::PreWSS: working subspace size set to           15
   GDM::PrEWSS: # of linearly dependent vectors =            0
   GDM::PrEWSS: Max dev from orthonormality =   1.321644859525462E-010
   GDM::BFGS:   lowest Hinv e-value    0.204140216121551     
   GDM::BFGS:   highest Hinv e-value    7.71101266377892     
   GDM::      : max scaling in EWCs is          2.82842712474619     
   GDM::      : max rotation in step is       -9.206945311444524E-009
   GDM::        grad.step =  -5.359973695005759E-016
   ------- Leaving GDM -- hopefully with a step in the right direction! --------
 
   42    -168.2025792381      4.49E-09 Convergence criterion met
 ---------------------------------------
 One-Electron    Energy =  -432.7909209552
 Total Coulomb   Energy =   198.6863719521
 Alpha Exchange  Energy =    -1.8999538020
 Beta  Exchange  Energy =    -1.8999538020
 DFT   Exchange  Energy =   -15.3519700127
 DFT Correlation Energy =    -1.3408085889
 Nuclear Repu.   Energy =    86.3946559704
 Nuclear Attr.   Energy =  -555.7444256313
 Kinetic         Energy =   122.9535046761
 SCF time:  CPU 105.14 s  wall 18.77 s
 SCF   energy in the final basis set = -168.2025792381
 Total energy in the final basis set = -168.2025792381
 
 --------------------------------------------------------------
 
                    Orbital Energies (a.u.)
 --------------------------------------------------------------
 
 Alpha MOs
 -- Occupied --
-19.104  -2.003  -1.933  -1.279  -1.205  -1.178  -1.160  -1.131
 -1.062  -0.829  -0.314  -0.291  -0.287  -0.176  -0.171  -0.135
 -- Virtual --
 -0.097  -0.059  -0.053  -0.042  -0.015  -0.006  -0.001   0.009
  0.019   0.034   0.036   0.050   0.076   0.079   0.084   0.093
  0.102   0.144   0.187   0.200   0.209   0.217   0.225   0.239
  0.245   0.259   0.265   0.275   0.285   0.301   0.322   0.347
  0.359   0.392   0.460   1.204   1.255   1.295   1.638   1.849
  1.861   1.870   1.883   1.969  11.797  16.011
 --------------------------------------------------------------
 
          Ground-State Mulliken Net Atomic Charges

     Atom                 Charge (a.u.)
  ----------------------------------------
      1 Zr                    0.472818
      2 Zr                    0.218288
      3 O                    -0.691106
  ----------------------------------------
  Sum of atomic charges =     0.000000

 -----------------------------------------------------------------
                    Cartesian Multipole Moments
 -----------------------------------------------------------------
    Charge (ESU x 10^10)
                 0.0000
    Dipole Moment (Debye)
         X       0.1752      Y       3.8676      Z       0.0000
       Tot       3.8716
    Quadrupole Moments (Debye-Ang)
        XX     -38.9443     XY       3.6981     YY     -58.9155
        XZ       0.0000     YZ       0.0000     ZZ     -49.9466
    Octopole Moments (Debye-Ang^2)
       XXX       7.3132    XXY      13.3412    XYY       1.1594
       YYY      11.8099    XXZ       0.0000    XYZ       0.0000
       YYZ       0.0000    XZZ       1.7131    YZZ       0.5272
       ZZZ       0.0000
    Hexadecapole Moments (Debye-Ang^3)
      XXXX    -339.7116   XXXY       0.1262   XXYY     -93.2575
      XYYY      16.9189   YYYY    -243.5405   XXXZ       0.0000
      XXYZ       0.0000   XYYZ       0.0000   YYYZ       0.0000
      XXZZ     -68.5154   XYZZ       3.8839   YYZZ     -53.9013
      XZZZ       0.0000   YZZZ       0.0000   ZZZZ    -106.9039
 -----------------------------------------------------------------
Archival summary:
1\1\hpc3922\SP\ProcedureUnspecified\BasisUnspecified\r21(+,1)\liqiuy\FriJan1719:31:242020FriJan1719:31:242020\0\\#,ProcedureUnspecified,BasisUnspecified,\\56,1\Zr\O,1,1.84565\Zr,1,2.06654,2,72.1132\\\@

 Total job time:  19.78s(wall), 109.72s(cpu) 
 Fri Jan 17 19:31:24 2020

        *************************************************************
        *                                                           *
        *  Thank you very much for using Q-Chem.  Have a nice day.  *
        *                                                           *
        *************************************************************


0 sent ACK to 0 
now end server 0 ... 
cleanup process ... done

Running Job 2 of 2 ZrOx.in
qchem ZrOx.in_28843.1 /tmp/5732647.priya/ZrOx.save/ 1
/usr/usc/qchem/4.4/bin/mpi/mpirun_qchem -machinefile /usr/usc/qchem/4.4/bin/mpi/machines -np 1 /usr/usc/qchem/4.4/exe/qcprog.exe ZrOx.in_28843.1 /tmp/5732647.priya/ZrOx.save/

Process 0 of 1 is on hpc3922.hpcc.usc.edu - thread support 0
initial socket setup ...start
initial socket setup ...done 
now start server 0 ... 
Check license passed

                  Welcome to Q-Chem
     A Quantum Leap Into The Future Of Chemistry


 Q-Chem 4.4, Q-Chem, Inc., Pleasanton, CA (2016)

 Y. Shao,  Z. Gan,  E. Epifanovsky,  A. T. B. Gilbert,  M. Wormit,  
 J. Kussmann,  A. W. Lange,  A. Behn,  J. Deng,  X. Feng,  D. Ghosh,  
 M. Goldey,  P. R. Horn,  L. D. Jacobson,  I. Kaliman,  F.Rob,  
 R. Z. Khaliullin,  T. Kus,  A. Landau,  J. Liu,  E. I. Proynov,  Y. M. Rhee,  
 R. M. Richard,  M. A. Rohrdanz,  R. P. Steele,  E. J. Sundstrom,  
 H. L. Woodcock III,  P. M. Zimmerman,  D. Zuev,  B. Albrecht,  E. Alguire,  
 B. Austin,  S. A. Baeppler,  G. J. O. Beran,  Y. A. Bernard,  E. Berquist,  
 K. Brandhorst,  K. B. Bravaya,  S. T. Brown,  D. Casanova,  C.-M. Chang,  
 Y. Chen,  S. H. Chien,  K. D. Closser,  M. P. Coons,  D. L. Crittenden,  
 S. Dasgupta,  M. Diedenhofen,  R. A. DiStasio Jr.,  H. Do,  A. D. Dutoi,  
 R. G. Edgar,  P.-T. Fang,  S. Fatehi,  Q. Feng,  L. Fusti-Molnar,  
 A. Ghysels,  A. Golubeva-Zadorozhnaya,  J. Gomes,  A. Gunina,  
 M. W. D. Hanson-Heine,  P. H. P. Harbach,  A. W. Hauser,  E. G. Hohenstein,  
 Z. C. Holden,  K. Hui,  T.-C. Jagau,  H. Ji,  B. Kaduk,  K. Khistyaev,  
 Jaehoon Kim,  Jihan Kim,  R. A. King,  P. Klunzinger,  D. Kosenkov,  
 T. Kowalczyk,  C. M. Krauter,  A. Kunitsa,  K. U. Lao,  A. Laurent,  
 K. V. Lawler,  D. Lefrancois,  S. Lehtola,  S. V. Levchenko,  C. Y. Lin,  
 Y.-S. Lin,  F. Liu,  E. Livshits,  R. C. Lochan,  A. Luenser,  P. Manohar,  
 S. F. Manzer,  S.-P. Mao,  Y. Mao,  N. Mardirossian,  A. V. Marenich,  
 L. A. Martinez-Martinez,  S. A. Maurer,  N. J. Mayhall,  J.-M. Mewes,  
 A. F. Morrison,  K. Nanda,  C. M. Oana,  R. Olivares-Amaya,  D. P. O'Neill,  
 J. A. Parkhill,  T. M. Perrine,  R. Peverati,  P. A. Pieniazek,  F. Plasser,  
 A. Prociuk,  D. R. Rehn,  E. Rosta,  N. J. Russ,  N. Sergueev,  
 S. M. Sharada,  S. Sharma,  D. W. Small,  A. Sodt,  T. Stauch,  T. Stein,  
 D. Stuck,  Y.-C. Su,  A. J. W. Thom,  T. Tsuchimochi,  L. Vogt,  O. Vydrov,  
 T. Wang,  M. A. Watson,  J. Wenzel,  A. White,  C. F. Williams,  
 V. Vanovschi,  S. Yeganeh,  S. R. Yost,  Z.-Q. You,  I. Y. Zhang,  X. Zhang,  
 Y. Zhao,  B. R. Brooks,  G. K. L. Chan,  D. M. Chipman,  C. J. Cramer,  
 W. A. Goddard III,  M. S. Gordon,  W. J. Hehre,  A. Klamt,  
 H. F. Schaefer III,  M. W. Schmidt,  C. D. Sherrill,  D. G. Truhlar,  
 A. Warshel,  X. Xu,  A. Aspuru-Guzik,  R. Baer,  A. T. Bell,  N. A. Besley,  
 J.-D. Chai,  A. Dreuw,  B. D. Dunietz,  T. R. Furlani,  S. R. Gwaltney,  
 C.-P. Hsu,  Y. Jung,  J. Kong,  D. S. Lambrecht,  W. Liang,  C. Ochsenfeld,  
 V. A. Rassolov,  L. V. Slipchenko,  J. E. Subotnik,  T. Van Voorhis,  
 J. M. Herbert,  A. I. Krylov,  P. M. W. Gill,  M. Head-Gordon

 Contributors to earlier versions of Q-Chem not listed above: 
 R. D. Adamson,  J. Baker,  E. F. C. Byrd,  A. K. Chakraborty,  C.-L. Cheng,  
 H. Dachsel,  R. J. Doerksen,  G. Hawkins,  A. Heyden,  S. Hirata,  
 G. Kedziora,  F. J. Keil,  C. Kelley,  P. P. Korambath,  W. Kurlancheek,  
 A. M. Lee,  M. S. Lee,  D. Liotard,  I. Lotan,  P. E. Maslen,  N. Nair,  
 D. Neuhauser,  R. Olson,  B. Peters,  J. Ritchie,  N. E. Schultz,  
 N. Shenvi,  A. C. Simmonett,  K. S. Thanthiriwatte,  Q. Wu,  W. Zhang

 Please cite Q-Chem as follows:
 Y. Shao et al., Mol. Phys. 113, 184-215 (2015)
 DOI: 10.1080/00268976.2014.952696

 Q-Chem 4.4.1 for Intel X86 Linux

 Parts of Q-Chem use Armadillo 5.200.1 (Boston Tea Smuggler).
 http://arma.sourceforge.net/

 Q-Chem begins on Fri Jan 17 19:31:27 2020  

Host: 
0

     Scratch files written to /tmp/5732647.priya/ZrOx.save//
 Jul2716 11668_ 21447  21445 5558   
 Parallel job on  1  processors
Processing $rem in /usr/usc/qchem/4.4/config/preferences.
 MEM_TOTAL  2000 
The previous job contains 0 fragments, simply inherited here

Checking the input file for inconsistencies... 	...done.

--------------------------------------------------------------
User input:
--------------------------------------------------------------

$comment
-----------------------
A GEOMETRY OPTIMIZATION
-----------------------
$end

$molecule
READ
$end

$rem
JOBTYPE   OPT
METHOD   B3LYP
BASIS   GEN
ECP   GEN
SCF_GUESS   READ
MAX_SCF_CYCLES   200
SCF_CONVERGENCE 8
SCF_PRINT 1
PDB_PRINT 2
THRESH 14
VARTHRESH 14
INCDFT FALSE
SYMMETRY False
Sym_ignore True
SCF_ALGORITHM GDM
XC_GRID 000128000302
GEOM_OPT_MAX_CYCLES 200
DFT_D           EMPIRICAL_GRIMME3
DFT_D3_S6       1000
DFT_D3_RS6     1261
DFT_D3_S8      1703
DFT_D3_3BODY    FALSE
SCF_PRINT 1
PDB_PRINT 2
$end

$basis
O
6-31+G**
****
S
6-31+G**
****
Zr
LanL2DZ
****
$end

$ecp
Zr
LanL2DZ
****
$end

--------------------------------------------------------------
 ----------------------------------------------------------------
             Standard Nuclear Orientation (Angstroms)
    I     Atom           X                Y                Z
 ----------------------------------------------------------------
    1      Zr      0.9764400000     0.2670700000     0.0000000000
    2      Zr     -1.0772000000     0.0365600000     0.0000000000
    3      O       0.6090300000    -1.5416400000     0.0000000000
 ----------------------------------------------------------------
 Nuclear Repulsion Energy =    86.3946559680 hartrees
 There are       16 alpha and       16 beta electrons

 Q-Chem warning in module /home/scratch/svnadmin/11668_zgan/qchem/forms1/BasisType.C, line 1419:

 Setting pure/cartesian flag to 2111 for general basis


 Requested basis set is non-standard
 There are 21 shells and 62 basis functions

 Total QAlloc Memory Limit   2000 MB
 Mega-Array Size        61 MB
 MEM_STATIC part        62 MB
 A cutoff of  1.0D-14 yielded    231 shell pairs
 There are      2039 function pairs (      2389 Cartesian)
 
 -------------------------------------------------------
 OpenMP Integral Computing Module                       
 Release: version 1.0, May 2013, Q-Chem Inc. Pittsburgh 
 -------------------------------------------------------
 Integral Job Info:
 Integral job number is                      11
 Integral operator is                         1
 short-range coefficients                     0
 long-range coefficients              100000000
 Omega coefficients                           0
 if combine SR and LR in K                    0
 Integral screening is                        0
 Integral computing path is                   2
 max size of driver memory is            800000
 size of driver memory is                593474
 size of scratch memory is             11771240
 max col of scratch BK array               1296
 max len of scratch array in speh3          155
 max len of scratch index in speh4           18
 max int batch size is                      520
 min int batch size is                       52
 fixed nKL is                                52
 max L of basis functions is                  2
 order of int derivative is                   0
 number of shells is                         21
 number of basis is                          67
 number of cartesian basis is                67
 number of contracted shell pairs           231
 number of primitive shell pairs           1194
 maxK2 (contraction) of shell pair           36
 max number of K2 of shell pair               1
 max number of CS2 of shell pair             10
 max number of PS2 of shell pair             84
 mem total for path MDJ                   21952
 -------------------------------------------------------
 Requested basis set is non-standard
 Compound shells will be simplified
 There are 24 shells and 62 basis functions
 A cutoff of  1.0D-14 yielded    300 shell pairs
 There are      2030 function pairs (      2380 Cartesian)
 Smallest overlap matrix eigenvalue = 1.30E-03

 Scale SEOQF with 1.000000e-01/1.000000e-01/1.000000e-01

 Standard Electronic Orientation quadrupole field applied
 Nucleus-field energy     =     0.0000000024 hartrees
 Guess MOs from SCF MO coefficient file
 Reading MOs from coefficient file
 Reading MOs from coefficient file
 A restricted hybrid HF-DFT SCF calculation will be
 performed using Geometric Direct Minimization
 Exchange:     0.2000 Hartree-Fock + 0.0800 Slater + 0.7200 B88
 Correlation:  0.1900 VWN1RPA + 0.8100 LYP
 Using Euler-Maclaurin-Lebedev (128,302) quadrature formula
 Dispersion:   Grimme D3
 SCF converges when RMS gradient is below 1.0E-08
 Maximum number of minimization steps = 200
 using 12 threads for integral computing 
 -------------------------------------------------------
 OpenMP BLAS3 based DFT computing Module                
 Release: version 1.0, May 2013, Q-Chem Inc. Pittsburgh 
 -------------------------------------------------------
 
   ------------------- Entering Geometric Direct Minimization ------------------
   GDM:         diagonal hessian shift is      0.000000000000000E+000
   GDM::PreWSS: input subspace size is                  1
   GDM::PreWSS: working subspace size set to            1
   GDM::PrEWSS: # of linearly dependent vectors =            0
   GDM::PrEWSS: Max dev from orthonormality =   0.000000000000000E+000
   GDM::BFGS:   lowest Hinv e-value     1.00000000000000     
   GDM::BFGS:   highest Hinv e-value    1.00000000000000     
   GDM::      : max scaling in EWCs is          2.82842712474619     
   GDM::      : max rotation in step is        4.940091395738838E-009
   GDM::        grad.step =  -1.798545071319070E-016
   ------- Leaving GDM -- hopefully with a step in the right direction! --------
 
 ---------------------------------------
  Cycle       Energy        RMS Gradient
 ---------------------------------------
    1    -168.2025792381      2.39E-09  Gap = 0.00 eV  Normal BFGS step
 
   ------------------- Entering Geometric Direct Minimization ------------------
   GDM::trust : actual energy change is        8.526512829121202E-014
   GDM::trust : predicted energy change was   -2.697817606978603E-016
   GDM::trust : updated trust radius is        0.108900000000000     
   GDM::WARNING energy changes are now smaller than effective accuracy.
   GDM::        calculation will continue, but THRESH should be increased
   GDM::        or SCF_CONVERGENCE decreased.
   GDM::        effective_thresh =   1.600000000000000E-010
   GDM:         diagonal hessian shift is      0.000000000000000E+000
   GDM::PreWSS: input subspace size is                  2
   GDM::PreWSS: working subspace size set to            2
   GDM::PrEWSS: # of linearly dependent vectors =            1
   GDM::PrEWSS: Max dev from orthonormality =   2.220446049250313E-016
   GDM::BFGS:   lowest Hinv e-value    0.293730396537842     
   GDM::BFGS:   highest Hinv e-value    1.53204931440850     
   GDM::      : max scaling in EWCs is          2.82842712474619     
   GDM::      : max rotation in step is        4.290115445621412E-009
   GDM::        grad.step =  -1.884794752747066E-016
   ------- Leaving GDM -- hopefully with a step in the right direction! --------
 
    2    -168.2025792381      7.11E-09 Convergence criterion met
 ---------------------------------------
 One-Electron    Energy =  -432.7909209611
 Total Coulomb   Energy =   198.6863719579
 Alpha Exchange  Energy =    -1.8999538021
 Beta  Exchange  Energy =    -1.8999538021
 DFT   Exchange  Energy =   -15.3519700124
 DFT Correlation Energy =    -1.3408085888
 Nuclear Repu.   Energy =    86.3946559704
 Nuclear Attr.   Energy =  -555.7444256332
 Kinetic         Energy =   122.9535046721
 SCF time:  CPU 3.30 s  wall 1.00 s
 SCF   energy in the final basis set = -168.2025792381
 Total energy in the final basis set = -168.2025792381
 
 --------------------------------------------------------------
 
                    Orbital Energies (a.u.)
 --------------------------------------------------------------
 
 Alpha MOs
 -- Occupied --
-19.104  -2.003  -1.933  -1.279  -1.205  -1.178  -1.160  -1.131
 -1.062  -0.829  -0.314  -0.291  -0.287  -0.176  -0.171  -0.135
 -- Virtual --
 -0.097  -0.059  -0.053  -0.042  -0.015  -0.006  -0.001   0.009
  0.019   0.034   0.036   0.050   0.076   0.079   0.084   0.093
  0.102   0.144   0.187   0.200   0.209   0.217   0.225   0.239
  0.245   0.259   0.265   0.275   0.285   0.301   0.322   0.347
  0.359   0.392   0.460   1.204   1.255   1.295   1.638   1.849
  1.861   1.870   1.883   1.969  11.797  16.011
 --------------------------------------------------------------
 
          Ground-State Mulliken Net Atomic Charges

     Atom                 Charge (a.u.)
  ----------------------------------------
      1 Zr                    0.472818
      2 Zr                    0.218288
      3 O                    -0.691106
  ----------------------------------------
  Sum of atomic charges =     0.000000

 -----------------------------------------------------------------
                    Cartesian Multipole Moments
 -----------------------------------------------------------------
    Charge (ESU x 10^10)
                 0.0000
    Dipole Moment (Debye)
         X       0.1752      Y       3.8676      Z       0.0000
       Tot       3.8716
    Quadrupole Moments (Debye-Ang)
        XX     -38.9443     XY       3.6981     YY     -58.9155
        XZ       0.0000     YZ       0.0000     ZZ     -49.9466
    Octopole Moments (Debye-Ang^2)
       XXX       7.3132    XXY      13.3412    XYY       1.1594
       YYY      11.8099    XXZ       0.0000    XYZ       0.0000
       YYZ       0.0000    XZZ       1.7131    YZZ       0.5272
       ZZZ       0.0000
    Hexadecapole Moments (Debye-Ang^3)
      XXXX    -339.7116   XXXY       0.1262   XXYY     -93.2575
      XYYY      16.9189   YYYY    -243.5405   XXXZ       0.0000
      XXYZ       0.0000   XYYZ       0.0000   YYYZ       0.0000
      XXZZ     -68.5154   XYZZ       3.8839   YYZZ     -53.9013
      XZZZ       0.0000   YZZZ       0.0000   ZZZZ    -106.9039
 -----------------------------------------------------------------
 Calculating analytic gradient of the SCF energy
 Gradient of SCF Energy
            1           2           3
    1  -0.1880742   0.1568151   0.0312591
    2  -0.0586801   0.0421659   0.0165142
    3   0.0000000   0.0000000  -0.0000000
 Max gradient component =       1.881E-01
 RMS gradient           =       8.592E-02
 Gradient time:  CPU 5.50 s  wall 1.24 s
 Geometry Optimization Parameters
   NAtoms,    NIC,     NZ,  NCons,   NDum,   NFix, NCnnct, MaxDiis
        3      12       0       0       0       0       0       0


** GEOMETRY OPTIMIZATION IN DELOCALIZED INTERNAL COORDINATES **
   Searching for a Minimum

   Optimization Cycle:   1

                       Coordinates (Angstroms)
     ATOM                X               Y               Z
      1  Zr        0.9764400000    0.2670700000    0.0000000000
      2  Zr       -1.0772000000    0.0365600000    0.0000000000
      3  O         0.6090300000   -1.5416400000    0.0000000000
   Point Group: c1    Number of degrees of freedom:     3


   Energy is   -168.202579238


 Attempting to Generate Delocalized Internal Coordinates

  3 Hessian modes will be used to form the next step
  Hessian Eigenvalues:
     0.098789    0.230475    0.275915

 Minimum Search - Taking Simple RFO Step
 Searching for Lamda that Minimizes Along All modes
 Value Taken    Lamda =  -0.08497485
 Calculated Step too Large.  Step scaled by  0.613357
 Step Taken.  Stepsize is  0.300000

                             Maximum     Tolerance    Cnvgd?
         Gradient           0.119362      0.000300      NO
         Displacement       0.220195      0.001200      NO
         Energy change     *********      0.000001      NO


 New Cartesian Coordinates Obtained by Inverse Iteration

 Displacement from previous Coordinates is:  0.212382
 ----------------------------------------------------------------
             Standard Nuclear Orientation (Angstroms)
    I     Atom           X                Y                Z
 ----------------------------------------------------------------
    1      Zr      1.0598155392     0.2906680576     0.0000000000
    2      Zr     -1.1289258152     0.0006059009     0.0000000000
    3      O       0.5773802760    -1.5292839586     0.0000000000
 ----------------------------------------------------------------
 Nuclear Repulsion Energy =    83.6619905735 hartrees
 There are       16 alpha and       16 beta electrons
 Applying Cartesian multipole field
    Component          Value
    ---------          -----
     (2,0,0)        1.00000E-11
     (0,2,0)        2.00000E-11
     (0,0,2)       -3.00000E-11
 Nucleus-field energy     =     0.0000000025 hartrees
 Requested basis set is non-standard
 There are 21 shells and 62 basis functions
 A cutoff of  1.0D-14 yielded    231 shell pairs
 There are      2039 function pairs (      2389 Cartesian)
 Requested basis set is non-standard
 Compound shells will be simplified
 There are 24 shells and 62 basis functions
 A cutoff of  1.0D-14 yielded    300 shell pairs
 There are      2030 function pairs (      2380 Cartesian)
 Smallest overlap matrix eigenvalue = 1.39E-03
 Guess MOs from SCF MO coefficient file
 Reading MOs from coefficient file
 Reading MOs from coefficient file
 A restricted hybrid HF-DFT SCF calculation will be
 performed using Geometric Direct Minimization
 Exchange:     0.2000 Hartree-Fock + 0.0800 Slater + 0.7200 B88
 Correlation:  0.1900 VWN1RPA + 0.8100 LYP
 Using Euler-Maclaurin-Lebedev (128,302) quadrature formula
 Dispersion:   Grimme D3
 SCF converges when RMS gradient is below 1.0E-08
 Maximum number of minimization steps = 200
 Geometry optimization detected.  Setting ReadMinima to 0
 Setting SaveMinima to 0
 using 12 threads for integral computing 
 -------------------------------------------------------
 OpenMP BLAS3 based DFT computing Module                
 Release: version 1.0, May 2013, Q-Chem Inc. Pittsburgh 
 -------------------------------------------------------
 
   ------------------- Entering Geometric Direct Minimization ------------------
   GDM:         diagonal hessian shift is      0.000000000000000E+000
   GDM::PreWSS: input subspace size is                  1
   GDM::PreWSS: working subspace size set to            1
   GDM::PrEWSS: # of linearly dependent vectors =            0
   GDM::PrEWSS: Max dev from orthonormality =   0.000000000000000E+000
   GDM::BFGS:   lowest Hinv e-value     1.00000000000000     
   GDM::BFGS:   highest Hinv e-value    1.00000000000000     
   GDM::      : max scaling in EWCs is          2.82842712474619     
   GDM::      : max rotation in step is        0.129468302092665     
   GDM::        grad.step =  -1.290955104532514E-002
   ------- Leaving GDM -- hopefully with a step in the right direction! --------
 
 ---------------------------------------
  Cycle       Energy        RMS Gradient
 ---------------------------------------
    1    -168.2271287361      4.58E-02  Gap = 149244.85 eV  Normal BFGS step
 
   ------------------- Entering Geometric Direct Minimization ------------------
   GDM::trust : actual energy change is       -1.066979115191202E-002
   GDM::trust : predicted energy change was   -1.936432656798771E-002
   GDM::trust : updated trust radius is        0.330000000000000     
   GDM:         diagonal hessian shift is      0.000000000000000E+000
   GDM::PreWSS: input subspace size is                  2
   GDM::PreWSS: working subspace size set to            2
   GDM::PrEWSS: # of linearly dependent vectors =            0
   GDM::PrEWSS: Max dev from orthonormality =   4.170275236248244E-015
   GDM::BFGS:   lowest Hinv e-value    0.384027187249623     
   GDM::BFGS:   highest Hinv e-value    2.24291870940136     
   GDM::      : max scaling in EWCs is          2.82842712474619     
   GDM::      : max rotation in step is        0.184316813034807     
   GDM::        grad.step =  -1.027977768668966E-002
   ------- Leaving GDM -- hopefully with a step in the right direction! --------
 
    2    -168.2377985272      3.60E-02  Gap = 149244.85 eV  Normal BFGS step
 
   ------------------- Entering Geometric Direct Minimization ------------------
   GDM::trust : actual energy change is        1.065256672944770E-003
   GDM::trust : predicted energy change was   -1.541966653003449E-002
   GDM::trust : updated trust radius is        0.108900000000000     
   GDM::search:  On step            1 .  The current bracket is:
       left   : x =  0.0000E+00, e =      -168.2377985272, g = -0.4361E-01
       current: x =  0.2357E+00, e =      -168.2367332706, g =  0.4698E-01
       right  : x =  0.1000E+04, e =      1000.0000000000, g =  0.1000E+04
       next   : x =  0.1068E+00
   GDM::      : max rotation in step is        8.350507375537013E-002
   ------- Leaving GDM -- hopefully with a step in the right direction! --------
 
    3    -168.2367332706      8.07E-03  Gap = 149244.85 eV  Line search: overstep
 
   ------------------- Entering Geometric Direct Minimization ------------------
   GDM::trust : actual energy change is       -4.830370863487587E-003
   GDM::trust : predicted energy change was   -1.541966653003449E-002
   GDM::trust : updated trust radius is        0.108900000000000     
   GDM:         diagonal hessian shift is      0.000000000000000E+000
[...]
       current: x =  0.6326E-03, e =      -168.2955375990, g =  0.3408E-03
       right  : x =  0.1000E+04, e =      1000.0000000000, g =  0.1000E+04
       next   : x =  0.1859E-03
   GDM::      : max rotation in step is       -9.814280116832750E-005
   ------- Leaving GDM -- hopefully with a step in the right direction! --------
 
    7    -168.2955375990      6.39E-05  Gap = -0.05 eV  Line search: overstep
 
   ------------------- Entering Geometric Direct Minimization ------------------
   GDM::trust : actual energy change is       -4.489919547268073E-008
   GDM::trust : predicted energy change was   -1.900257865847600E-007
   GDM::trust : updated trust radius is        0.108900000000000     
   GDM:         diagonal hessian shift is      0.000000000000000E+000
   GDM::PreWSS: input subspace size is                  5
   GDM::PreWSS: working subspace size set to            5
   GDM::PrEWSS: # of linearly dependent vectors =            2
   GDM::PrEWSS: Max dev from orthonormality =   6.747941788676215E-010
   GDM::BFGS:   lowest Hinv e-value    0.138428429552739     
   GDM::BFGS:   highest Hinv e-value    1.47639769643204     
   GDM::      : max scaling in EWCs is          2.76577573431253     
   GDM::      : max rotation in step is       -2.249838515560369E-004
   GDM::        grad.step =  -2.217172255464134E-008
   ------- Leaving GDM -- hopefully with a step in the right direction! --------
 
    8    -168.2955377328      5.75E-05  Gap = -0.05 eV  Normal BFGS step
 
   ------------------- Entering Geometric Direct Minimization ------------------
   GDM::trust : actual energy change is       -1.837668150983518E-008
   GDM::trust : predicted energy change was   -3.325758383196202E-008
   GDM::trust : updated trust radius is        0.330000000000000     
   GDM:         diagonal hessian shift is      0.000000000000000E+000
   GDM::PreWSS: input subspace size is                  6
   GDM::PreWSS: working subspace size set to            6
   GDM::PrEWSS: # of linearly dependent vectors =            4
   GDM::PrEWSS: Max dev from orthonormality =   5.374173328576148E-013
   GDM::BFGS:   lowest Hinv e-value    0.133679325239398     
   GDM::BFGS:   highest Hinv e-value    1.71329371387350     
   GDM::      : max scaling in EWCs is          2.76569942757137     
   GDM::      : max rotation in step is       -5.356326783151914E-005
   GDM::        grad.step =  -2.439037167097889E-009
   ------- Leaving GDM -- hopefully with a step in the right direction! --------
 
    9    -168.2955377511      2.20E-05  Gap = -0.05 eV  Normal BFGS step
 
   ------------------- Entering Geometric Direct Minimization ------------------
   GDM::trust : actual energy change is       -2.963332690342213E-009
   GDM::trust : predicted energy change was   -3.658555750646833E-009
   GDM::trust : updated trust radius is        0.330000000000000     
   GDM:         diagonal hessian shift is      0.000000000000000E+000
   GDM::PreWSS: input subspace size is                  7
   GDM::PreWSS: working subspace size set to            7
   GDM::PrEWSS: # of linearly dependent vectors =            5
   GDM::PrEWSS: Max dev from orthonormality =   5.318176454771617E-013
   GDM::BFGS:   lowest Hinv e-value    0.137910087466631     
   GDM::BFGS:   highest Hinv e-value    2.08327003134032     
   GDM::      : max scaling in EWCs is          2.76573997430303     
   GDM::      : max rotation in step is       -7.470483095368095E-005
   GDM::        grad.step =  -7.152108139411675E-010
   ------- Leaving GDM -- hopefully with a step in the right direction! --------
 
   10    -168.2955377541      1.60E-05  Gap = -0.05 eV  Normal BFGS step
 
   ------------------- Entering Geometric Direct Minimization ------------------
   GDM::trust : actual energy change is       -7.856328920752276E-010
   GDM::trust : predicted energy change was   -1.072816220911751E-009
   GDM::trust : updated trust radius is        0.330000000000000     
   GDM:         diagonal hessian shift is      0.000000000000000E+000
   GDM::PreWSS: input subspace size is                  8
   GDM::PreWSS: working subspace size set to            8
   GDM::PrEWSS: # of linearly dependent vectors =            6
   GDM::PrEWSS: Max dev from orthonormality =   4.586261925787483E-013
   GDM::BFGS:   lowest Hinv e-value    0.133951233820065     
   GDM::BFGS:   highest Hinv e-value    2.96193700732715     
   GDM::      : max scaling in EWCs is          2.76574019158636     
   GDM::      : max rotation in step is       -4.107744823998607E-005
   GDM::        grad.step =  -2.149166253318294E-010
   ------- Leaving GDM -- hopefully with a step in the right direction! --------
 
   11    -168.2955377549      5.61E-06  Gap = -0.05 eV  Normal BFGS step
 
   ------------------- Entering Geometric Direct Minimization ------------------
   GDM::trust : actual energy change is       -1.960529516509268E-010
   GDM::trust : predicted energy change was   -3.223749379977442E-010
   GDM::trust : updated trust radius is        0.330000000000000     
   GDM:         diagonal hessian shift is      0.000000000000000E+000
   GDM::PreWSS: input subspace size is                  9
   GDM::PreWSS: working subspace size set to            9
   GDM::PrEWSS: # of linearly dependent vectors =            7
   GDM::PrEWSS: Max dev from orthonormality =   5.630218513630325E-013
   GDM::BFGS:   lowest Hinv e-value    0.135965363241868     
   GDM::BFGS:   highest Hinv e-value    3.07459298542038     
   GDM::      : max scaling in EWCs is          2.76574220314371     
   GDM::      : max rotation in step is       -4.894406362735995E-006
   GDM::        grad.step =  -3.377994221614948E-011
   ------- Leaving GDM -- hopefully with a step in the right direction! --------
 
   12    -168.2955377551      2.72E-06  Gap = -0.05 eV  Normal BFGS step
 
   ------------------- Entering Geometric Direct Minimization ------------------
   GDM::trust : actual energy change is       -3.547029336914420E-011
   GDM::trust : predicted energy change was   -5.066991332422423E-011
   GDM::trust : updated trust radius is        0.330000000000000     
   GDM:         diagonal hessian shift is      0.000000000000000E+000
   GDM::PreWSS: input subspace size is                 10
   GDM::PreWSS: working subspace size set to           10
   GDM::PrEWSS: # of linearly dependent vectors =            8
   GDM::PrEWSS: Max dev from orthonormality =   9.127976152711881E-013
   GDM::BFGS:   lowest Hinv e-value    0.137532338273818     
   GDM::BFGS:   highest Hinv e-value    3.02384442597480     
   GDM::      : max scaling in EWCs is          2.76573743563651     
   GDM::      : max rotation in step is        1.708940147911139E-006
   GDM::        grad.step =  -2.367581363606768E-012
   ------- Leaving GDM -- hopefully with a step in the right direction! --------
 
   13    -168.2955377551      5.08E-07  Gap = -0.05 eV  Normal BFGS step
 
   ------------------- Entering Geometric Direct Minimization ------------------
   GDM::trust : actual energy change is       -2.160049916710705E-012
   GDM::trust : predicted energy change was   -3.551372045410153E-012
   GDM::trust : updated trust radius is        0.330000000000000     
   GDM:         diagonal hessian shift is      0.000000000000000E+000
   GDM::PreWSS: input subspace size is                 11
   GDM::PreWSS: working subspace size set to           11
   GDM::PrEWSS: # of linearly dependent vectors =            9
   GDM::PrEWSS: Max dev from orthonormality =   6.923628337318632E-013
   GDM::BFGS:   lowest Hinv e-value    0.137380913710722     
   GDM::BFGS:   highest Hinv e-value    3.00811275902273     
   GDM::      : max scaling in EWCs is          2.76573657191973     
   GDM::      : max rotation in step is       -3.193412995684514E-007
   GDM::        grad.step =  -1.768160895326362E-013
   ------- Leaving GDM -- hopefully with a step in the right direction! --------
 
   14    -168.2955377551      1.22E-07  Gap = -0.05 eV  Normal BFGS step
 
   ------------------- Entering Geometric Direct Minimization ------------------
   GDM::trust : actual energy change is        1.421085471520200E-013
   GDM::trust : predicted energy change was   -2.652241342989544E-013
   GDM::trust : updated trust radius is        0.108900000000000     
   GDM::WARNING energy changes are now smaller than effective accuracy.
   GDM::        calculation will continue, but THRESH should be increased
   GDM::        or SCF_CONVERGENCE decreased.
   GDM::        effective_thresh =   1.213498912466804E-009
   GDM:         diagonal hessian shift is      0.000000000000000E+000
   GDM::PreWSS: input subspace size is                 12
   GDM::PreWSS: working subspace size set to           12
   GDM::PrEWSS: # of linearly dependent vectors =           10
   GDM::PrEWSS: Max dev from orthonormality =   5.988542994828094E-013
   GDM::BFGS:   lowest Hinv e-value    0.137581444142208     
   GDM::BFGS:   highest Hinv e-value    3.03051611807773     
   GDM::      : max scaling in EWCs is          2.76573677431345     
   GDM::      : max rotation in step is       -1.379035680535351E-007
   GDM::        grad.step =  -1.200154812926122E-014
   ------- Leaving GDM -- hopefully with a step in the right direction! --------
 
   15    -168.2955377551      4.51E-08  Gap = -0.05 eV  Normal BFGS step
 
   ------------------- Entering Geometric Direct Minimization ------------------
   GDM::trust : actual energy change is        1.705302565824240E-013
   GDM::trust : predicted energy change was   -1.800232219389184E-014
   GDM::trust : updated trust radius is        0.108900000000000     
   GDM::WARNING energy changes are now smaller than effective accuracy.
   GDM::        calculation will continue, but THRESH should be increased
   GDM::        or SCF_CONVERGENCE decreased.
   GDM::        effective_thresh =   1.213498912466804E-009
   GDM:         diagonal hessian shift is      0.000000000000000E+000
   GDM::PreWSS: input subspace size is                 13
   GDM::PreWSS: working subspace size set to           13
   GDM::PrEWSS: # of linearly dependent vectors =           11
   GDM::PrEWSS: Max dev from orthonormality =   1.366393109769604E-012
   GDM::BFGS:   lowest Hinv e-value    0.137819651812563     
   GDM::BFGS:   highest Hinv e-value    3.03487839797250     
   GDM::      : max scaling in EWCs is          2.76573685669662     
   GDM::      : max rotation in step is       -9.738083401484462E-008
   GDM::        grad.step =  -2.652131677779106E-015
   ------- Leaving GDM -- hopefully with a step in the right direction! --------
 
   16    -168.2955377551      2.05E-08  Gap = -0.05 eV  Normal BFGS step
 
   ------------------- Entering Geometric Direct Minimization ------------------
   GDM::trust : actual energy change is       -5.115907697472721E-013
   GDM::trust : predicted energy change was   -3.978197516668660E-015
   GDM::trust : updated trust radius is        0.330000000000000     
   GDM:         diagonal hessian shift is      0.000000000000000E+000
   GDM::PreWSS: input subspace size is                 14
   GDM::PreWSS: working subspace size set to           14
   GDM::PrEWSS: # of linearly dependent vectors =           12
   GDM::PrEWSS: Max dev from orthonormality =   9.022643743250569E-013
   GDM::BFGS:   lowest Hinv e-value    0.137208292187321     
   GDM::BFGS:   highest Hinv e-value    3.00479540208915     
   GDM::      : max scaling in EWCs is          2.76573687289645     
   GDM::      : max rotation in step is       -3.703784029374562E-008
   GDM::        grad.step =  -3.520879182284755E-016
   ------- Leaving GDM -- hopefully with a step in the right direction! --------
 
   17    -168.2955377551      7.94E-09 Convergence criterion met
 ---------------------------------------
 One-Electron    Energy =  -423.7808611562
 Total Coulomb   Energy =   193.7120716953
 Alpha Exchange  Energy =    -1.8780955821
 Beta  Exchange  Energy =    -1.8780955821
 DFT   Exchange  Energy =   -15.1856029533
 DFT Correlation Energy =    -1.3259705215
 Nuclear Repu.   Energy =    82.0410163447
 Nuclear Attr.   Energy =  -545.8717007525
 Kinetic         Energy =   122.0908395963
 SCF time:  CPU 36.39 s  wall 8.12 s
 SCF   energy in the final basis set = -168.2955377551
 Total energy in the final basis set = -168.2955377551
 
 --------------------------------------------------------------
 
                    Orbital Energies (a.u.)
 --------------------------------------------------------------
 
 Alpha MOs
 -- Occupied --
-19.124  -1.999  -1.983  -1.239  -1.204  -1.198  -1.194  -1.185
 -1.140  -0.861  -0.327  -0.323  -0.315  -0.171  -0.155  -0.146
 -- Virtual --
 -0.081  -0.079  -0.051  -0.042  -0.031  -0.028  -0.027  -0.018
 -0.011  -0.006   0.014   0.040   0.044   0.049   0.064   0.089
  0.095   0.104   0.157   0.187   0.196   0.206   0.208   0.224
  0.239   0.239   0.245   0.247   0.275   0.276   0.293   0.302
  0.303   0.355   0.483   1.183   1.264   1.277   1.600   1.819
  1.830   1.837   1.869   1.892   8.714  10.385
 --------------------------------------------------------------
 
          Ground-State Mulliken Net Atomic Charges

     Atom                 Charge (a.u.)
  ----------------------------------------
      1 Zr                    0.409070
      2 Zr                    0.409628
      3 O                    -0.818698
  ----------------------------------------
  Sum of atomic charges =     0.000000

 -----------------------------------------------------------------
                    Cartesian Multipole Moments
 -----------------------------------------------------------------
    Charge (ESU x 10^10)
                 0.0000
    Dipole Moment (Debye)
         X      -0.3517      Y       1.6054      Z       0.0000
       Tot       1.6435
    Quadrupole Moments (Debye-Ang)
        XX     -41.9685     XY       3.9528     YY     -58.5508
        XZ       0.0000     YZ       0.0000     ZZ     -54.3077
    Octopole Moments (Debye-Ang^2)
       XXX     -14.0985    XXY       6.5515    XYY      -3.5545
       YYY       8.0581    XXZ       0.0000    XYZ       0.0000
       YYZ       0.0000    XZZ      -3.5512    YZZ      -3.4467
       ZZZ       0.0000
    Hexadecapole Moments (Debye-Ang^3)
      XXXX    -484.5302   XXXY     -35.2168   XXYY    -110.5415
      XYYY     -17.5097   YYYY    -243.9512   XXXZ       0.0000
      XXYZ       0.0000   XYYZ       0.0000   YYYZ       0.0000
      XXZZ     -96.9696   XYZZ      -8.0013   YYZZ     -63.2612
      XZZZ       0.0000   YZZZ       0.0000   ZZZZ    -137.8758
 -----------------------------------------------------------------
 Calculating analytic gradient of the SCF energy
 Gradient of SCF Energy
            1           2           3
    1   0.0001311  -0.0001467   0.0000156
    2   0.0001957  -0.0000527  -0.0001430
    3  -0.0000000  -0.0000000   0.0000000
 Max gradient component =       1.957E-04
 RMS gradient           =       1.057E-04
 Gradient time:  CPU 8.77 s  wall 1.18 s
 Geometry Optimization Parameters
   NAtoms,    NIC,     NZ,  NCons,   NDum,   NFix, NCnnct, MaxDiis
        3      12       0       0       0       0       0       0

 Cartesian Hessian Update
 Hessian Updated using BFGS Update


** GEOMETRY OPTIMIZATION IN DELOCALIZED INTERNAL COORDINATES **
   Searching for a Minimum

   Optimization Cycle:   9

                       Coordinates (Angstroms)
     ATOM                X               Y               Z
      1  Zr        1.2546364155    0.3619964303    0.0000000000
      2  Zr       -1.1398668989   -0.1631073355    0.0000000000
      3  O         0.3935004835   -1.4368990948    0.0000000000
   Point Group: c1    Number of degrees of freedom:     3


   Energy is   -168.295537755

 Hessian Updated using BFGS Update

  3 Hessian modes will be used to form the next step
  Hessian Eigenvalues:
     0.072815    0.148828    0.211087

 Minimum Search - Taking Simple RFO Step
 Searching for Lamda that Minimizes Along All modes
 Value Taken    Lamda =   0.00000000
 Step Taken.  Stepsize is  0.001122

                             Maximum     Tolerance    Cnvgd?
         Gradient           0.000161      0.000300     YES
         Displacement       0.000791      0.001200     YES
         Energy change     -0.000002      0.000001      NO


                       Distance Matrix (Angstroms)
             Zr(  1)   Zr(  2)
   Zr(  2)  2.451404
   O (  3)  1.994387  1.993429
 
 Final energy is   -168.295537755133     


 ******************************
 **  OPTIMIZATION CONVERGED  **
 ******************************

                       Coordinates (Angstroms)
     ATOM                X               Y               Z
      1  Zr        1.2546364155    0.3619964303    0.0000000000
      2  Zr       -1.1398668989   -0.1631073355    0.0000000000
      3  O         0.3935004835   -1.4368990948    0.0000000000

Z-matrix Print:
$molecule
0 1
Zr
O  1 1.993429
Zr 2 1.994387 1 75.863627
$end

 
 --------------------------------------------------------------
 
                    Orbital Energies (a.u.)
 --------------------------------------------------------------
 
 Alpha MOs
 -- Occupied --
-19.124  -1.999  -1.983  -1.239  -1.204  -1.198  -1.194  -1.185
 -1.140  -0.861  -0.327  -0.323  -0.315  -0.171  -0.155  -0.146
 -- Virtual --
 -0.081  -0.079  -0.051  -0.042  -0.031  -0.028  -0.027  -0.018
 -0.011  -0.006   0.014   0.040   0.044   0.049   0.064   0.089
  0.095   0.104   0.157   0.187   0.196   0.206   0.208   0.224
  0.239   0.239   0.245   0.247   0.275   0.276   0.293   0.302
  0.303   0.355   0.483   1.183   1.264   1.277   1.600   1.819
  1.830   1.837   1.869   1.892   8.714  10.385
 --------------------------------------------------------------
 
          Ground-State Mulliken Net Atomic Charges

     Atom                 Charge (a.u.)
  ----------------------------------------
      1 Zr                    0.409070
      2 Zr                    0.409628
      3 O                    -0.818698
  ----------------------------------------
  Sum of atomic charges =     0.000000

 -----------------------------------------------------------------
                    Cartesian Multipole Moments
 -----------------------------------------------------------------
    Charge (ESU x 10^10)
                 0.0000
    Dipole Moment (Debye)
         X      -0.3517      Y       1.6054      Z       0.0000
       Tot       1.6435
    Quadrupole Moments (Debye-Ang)
        XX     -41.9685     XY       3.9528     YY     -58.5508
        XZ       0.0000     YZ       0.0000     ZZ     -54.3077
    Octopole Moments (Debye-Ang^2)
       XXX     -14.0985    XXY       6.5515    XYY      -3.5545
       YYY       8.0581    XXZ       0.0000    XYZ       0.0000
       YYZ       0.0000    XZZ      -3.5512    YZZ      -3.4467
       ZZZ       0.0000
    Hexadecapole Moments (Debye-Ang^3)
      XXXX    -484.5302   XXXY     -35.2168   XXYY    -110.5415
      XYYY     -17.5097   YYYY    -243.9512   XXXZ       0.0000
      XXYZ       0.0000   XYYZ       0.0000   YYYZ       0.0000
      XXZZ     -96.9696   XYZZ      -8.0013   YYZZ     -63.2612
      XZZZ       0.0000   YZZZ       0.0000   ZZZZ    -137.8758
 -----------------------------------------------------------------
Archival summary:
1\1\hpc3922\OPT\ProcedureUnspecified\BasisUnspecified\r21(+,1)\liqiuy\FriJan1719:33:012020FriJan1719:33:012020\0\\#,OPT,ProcedureUnspecified,BasisUnspecified,\\56,1\Zr\O,1,1.99343\Zr,2,1.99439,1,75.8636\\\@

 Total job time:  94.73s(wall), 482.14s(cpu) 
 Fri Jan 17 19:33:01 2020

        *************************************************************
        *                                                           *
        *  Thank you very much for using Q-Chem.  Have a nice day.  *
        *                                                           *
        *************************************************************


0 sent ACK to 0 
now end server 0 ... 
cleanup process ... done
