
Running Job 1 of 2 ZrOx.in
qchem ZrOx.in_31724.0 /tmp/5732656.priya/ZrOx.save/ 1
/usr/usc/qchem/4.4/bin/mpi/mpirun_qchem -machinefile /usr/usc/qchem/4.4/bin/mpi/machines -np 1 /usr/usc/qchem/4.4/exe/qcprog.exe ZrOx.in_31724.0 /tmp/5732656.priya/ZrOx.save/

Process 0 of 1 is on hpc3916.hpcc.usc.edu - thread support 0
initial socket setup ...start
initial socket setup ...done 
now start server 0 ... 
Check license passed

                  Welcome to Q-Chem
     A Quantum Leap Into The Future Of Chemistry


 Q-Chem 4.4, Q-Chem, Inc., Pleasanton, CA (2016)

 Y. Shao,  Z. Gan,  E. Epifanovsky,  A. T. B. Gilbert,  M. Wormit,  
 J. Kussmann,  A. W. Lange,  A. Behn,  J. Deng,  X. Feng,  D. Ghosh,  
 M. Goldey,  P. R. Horn,  L. D. Jacobson,  I. Kaliman,  F.Rob,  
 R. Z. Khaliullin,  T. Kus,  A. Landau,  J. Liu,  E. I. Proynov,  Y. M. Rhee,  
 R. M. Richard,  M. A. Rohrdanz,  R. P. Steele,  E. J. Sundstrom,  
 H. L. Woodcock III,  P. M. Zimmerman,  D. Zuev,  B. Albrecht,  E. Alguire,  
 B. Austin,  S. A. Baeppler,  G. J. O. Beran,  Y. A. Bernard,  E. Berquist,  
 K. Brandhorst,  K. B. Bravaya,  S. T. Brown,  D. Casanova,  C.-M. Chang,  
 Y. Chen,  S. H. Chien,  K. D. Closser,  M. P. Coons,  D. L. Crittenden,  
 S. Dasgupta,  M. Diedenhofen,  R. A. DiStasio Jr.,  H. Do,  A. D. Dutoi,  
 R. G. Edgar,  P.-T. Fang,  S. Fatehi,  Q. Feng,  L. Fusti-Molnar,  
 A. Ghysels,  A. Golubeva-Zadorozhnaya,  J. Gomes,  A. Gunina,  
 M. W. D. Hanson-Heine,  P. H. P. Harbach,  A. W. Hauser,  E. G. Hohenstein,  
 Z. C. Holden,  K. Hui,  T.-C. Jagau,  H. Ji,  B. Kaduk,  K. Khistyaev,  
 Jaehoon Kim,  Jihan Kim,  R. A. King,  P. Klunzinger,  D. Kosenkov,  
 T. Kowalczyk,  C. M. Krauter,  A. Kunitsa,  K. U. Lao,  A. Laurent,  
 K. V. Lawler,  D. Lefrancois,  S. Lehtola,  S. V. Levchenko,  C. Y. Lin,  
 Y.-S. Lin,  F. Liu,  E. Livshits,  R. C. Lochan,  A. Luenser,  P. Manohar,  
 S. F. Manzer,  S.-P. Mao,  Y. Mao,  N. Mardirossian,  A. V. Marenich,  
 L. A. Martinez-Martinez,  S. A. Maurer,  N. J. Mayhall,  J.-M. Mewes,  
 A. F. Morrison,  K. Nanda,  C. M. Oana,  R. Olivares-Amaya,  D. P. O'Neill,  
 J. A. Parkhill,  T. M. Perrine,  R. Peverati,  P. A. Pieniazek,  F. Plasser,  
 A. Prociuk,  D. R. Rehn,  E. Rosta,  N. J. Russ,  N. Sergueev,  
 S. M. Sharada,  S. Sharma,  D. W. Small,  A. Sodt,  T. Stauch,  T. Stein,  
 D. Stuck,  Y.-C. Su,  A. J. W. Thom,  T. Tsuchimochi,  L. Vogt,  O. Vydrov,  
 T. Wang,  M. A. Watson,  J. Wenzel,  A. White,  C. F. Williams,  
 V. Vanovschi,  S. Yeganeh,  S. R. Yost,  Z.-Q. You,  I. Y. Zhang,  X. Zhang,  
 Y. Zhao,  B. R. Brooks,  G. K. L. Chan,  D. M. Chipman,  C. J. Cramer,  
 W. A. Goddard III,  M. S. Gordon,  W. J. Hehre,  A. Klamt,  
 H. F. Schaefer III,  M. W. Schmidt,  C. D. Sherrill,  D. G. Truhlar,  
 A. Warshel,  X. Xu,  A. Aspuru-Guzik,  R. Baer,  A. T. Bell,  N. A. Besley,  
 J.-D. Chai,  A. Dreuw,  B. D. Dunietz,  T. R. Furlani,  S. R. Gwaltney,  
 C.-P. Hsu,  Y. Jung,  J. Kong,  D. S. Lambrecht,  W. Liang,  C. Ochsenfeld,  
 V. A. Rassolov,  L. V. Slipchenko,  J. E. Subotnik,  T. Van Voorhis,  
 J. M. Herbert,  A. I. Krylov,  P. M. W. Gill,  M. Head-Gordon

 Contributors to earlier versions of Q-Chem not listed above: 
 R. D. Adamson,  J. Baker,  E. F. C. Byrd,  A. K. Chakraborty,  C.-L. Cheng,  
 H. Dachsel,  R. J. Doerksen,  G. Hawkins,  A. Heyden,  S. Hirata,  
 G. Kedziora,  F. J. Keil,  C. Kelley,  P. P. Korambath,  W. Kurlancheek,  
 A. M. Lee,  M. S. Lee,  D. Liotard,  I. Lotan,  P. E. Maslen,  N. Nair,  
 D. Neuhauser,  R. Olson,  B. Peters,  J. Ritchie,  N. E. Schultz,  
 N. Shenvi,  A. C. Simmonett,  K. S. Thanthiriwatte,  Q. Wu,  W. Zhang

 Please cite Q-Chem as follows:
 Y. Shao et al., Mol. Phys. 113, 184-215 (2015)
 DOI: 10.1080/00268976.2014.952696

 Q-Chem 4.4.1 for Intel X86 Linux

 Parts of Q-Chem use Armadillo 5.200.1 (Boston Tea Smuggler).
 http://arma.sourceforge.net/

 Q-Chem begins on Fri Jan 17 19:33:04 2020  

Host: 
0

     Scratch files written to /tmp/5732656.priya/ZrOx.save//
 Jul2716 11668_ 21447  21445 5558   
 Parallel job on  1  processors
Processing $rem in /usr/usc/qchem/4.4/config/preferences.
 MEM_TOTAL  2000 

Checking the input file for inconsistencies... 	...done.

--------------------------------------------------------------
User input:
--------------------------------------------------------------
$comment
--------------------------------------------------------
A SINGLE POINT DFT CALCULATION WITH BASIS SET PROJECTION
--------------------------------------------------------
$end

$molecule
0 3
Zr 0.96762 -0.37695 0.00211
Zr -0.86887 0.77939 0.00026
O 2.43346 0.56567 -0.00559
S -1.49338 -1.34683 -0.00218
$end

$rem
JOBTYPE   SP
METHOD   B3LYP
BASIS   GEN
ECP   GEN
MAX_SCF_CYCLES   200
SCF_CONVERGENCE 8
SCF_PRINT 1
PDB_PRINT 2
THRESH 14
VARTHRESH 14
INCDFT FALSE
SYMMETRY False
Sym_ignore True
SCF_ALGORITHM GDM
XC_GRID 000128000302
DFT_D           EMPIRICAL_GRIMME3
DFT_D3_S6       1000
DFT_D3_RS6     1261
DFT_D3_S8      1703
DFT_D3_3BODY    FALSE
$end

$basis
O
6-31+G**
****
S
6-31+G**
****
Zr
LanL2DZ
****
$end

$ecp
Zr
LanL2DZ
****
$end

--------------------------------------------------------------
 ----------------------------------------------------------------
             Standard Nuclear Orientation (Angstroms)
    I     Atom           X                Y                Z
 ----------------------------------------------------------------
    1      Zr      0.9676200000    -0.3769500000     0.0021100000
    2      Zr     -0.8688700000     0.7793900000     0.0002600000
    3      O       2.4334600000     0.5656700000    -0.0055900000
    4      S      -1.4933800000    -1.3468300000    -0.0021800000
 ----------------------------------------------------------------
 Nuclear Repulsion Energy =   179.3782820785 hartrees
 There are       25 alpha and       23 beta electrons

 Q-Chem warning in module /home/scratch/svnadmin/11668_zgan/qchem/forms1/BasisType.C, line 1419:

 Setting pure/cartesian flag to 2111 for general basis


 Requested basis set is non-standard
 There are 27 shells and 84 basis functions

 Total QAlloc Memory Limit   2000 MB
 Mega-Array Size        61 MB
 MEM_STATIC part        62 MB

                       Distance Matrix (Angstroms)
             Zr(  1)   Zr(  2)   O (  3)
   Zr(  2)  2.170212
   O (  3)  1.742779  3.309244
   S (  4)  2.645223  2.216039  4.367807
 
 A cutoff of  1.0D-14 yielded    371 shell pairs
 There are      3635 function pairs (      4184 Cartesian)
 
 -------------------------------------------------------
 OpenMP Integral Computing Module                       
 Release: version 1.0, May 2013, Q-Chem Inc. Pittsburgh 
 -------------------------------------------------------
 Integral Job Info:
 Integral job number is                      11
 Integral operator is                         1
 short-range coefficients                     0
 long-range coefficients              100000000
 Omega coefficients                           0
 if combine SR and LR in K                    0
 Integral screening is                        0
 Integral computing path is                   2
 max size of driver memory is            800000
 size of driver memory is                593474
 size of scratch memory is             15166112
 max col of scratch BK array               1296
 max len of scratch array in speh3          155
 max len of scratch index in speh4           18
 max int batch size is                      520
 min int batch size is                       52
 fixed nKL is                                52
 max L of basis functions is                  2
 order of int derivative is                   0
 number of shells is                         27
 number of basis is                          90
 number of cartesian basis is                90
 number of contracted shell pairs           371
 number of primitive shell pairs           2015
 maxK2 (contraction) of shell pair           36
 max number of K2 of shell pair               1
 max number of CS2 of shell pair             17
 max number of PS2 of shell pair            120
 mem total for path MDJ                   21952
 -------------------------------------------------------
 Requested basis set is non-standard
 Compound shells will be simplified
 There are 34 shells and 84 basis functions
 A cutoff of  1.0D-14 yielded    582 shell pairs
 There are      3614 function pairs (      4163 Cartesian)
 Smallest overlap matrix eigenvalue = 1.08E-03

 Scale SEOQF with 1.000000e-01/1.000000e-01/1.000000e-01

 Standard Electronic Orientation quadrupole field applied
 Nucleus-field energy     =     0.0000000066 hartrees
 Guess MOs from core Hamiltonian diagonalization
 An unrestricted hybrid HF-DFT SCF calculation will be
 performed using Geometric Direct Minimization
 Exchange:     0.2000 Hartree-Fock + 0.0800 Slater + 0.7200 B88
 Correlation:  0.1900 VWN1RPA + 0.8100 LYP
 Using Euler-Maclaurin-Lebedev (128,302) quadrature formula
 Dispersion:   Grimme D3
 SCF converges when RMS gradient is below 1.0E-08
 Maximum number of minimization steps = 200
 using 12 threads for integral computing 
 -------------------------------------------------------
 OpenMP BLAS3 based DFT computing Module                
 Release: version 1.0, May 2013, Q-Chem Inc. Pittsburgh 
 -------------------------------------------------------
 
   ------------------- Entering Geometric Direct Minimization ------------------
   GDM:         diagonal hessian shift is      0.000000000000000E+000
   GDM::PreWSS: input subspace size is                  1
   GDM::PreWSS: working subspace size set to            1
   GDM::PrEWSS: # of linearly dependent vectors =            0
   GDM::PrEWSS: Max dev from orthonormality =   2.220446049250313E-016
   GDM::BFGS:   lowest Hinv e-value     1.00000000000000     
   GDM::BFGS:   highest Hinv e-value    1.00000000000000     
   GDM::      : max scaling in EWCs is          1.41421356237309     
   GDM::      : max rotation in step is       -0.111986878508618     
   GDM::        grad.step =   -2.38927373531081     
   ------- Leaving GDM -- hopefully with a step in the right direction! --------
 
 ---------------------------------------
  Cycle       Energy        RMS Gradient
 ---------------------------------------
    1    -535.9463510989      1.76E+00  Gap = 0.00 eV  Descent step
 
   ------------------- Entering Geometric Direct Minimization ------------------
   GDM::trust : actual energy change is        -2.29490615750228     
   GDM::trust : predicted energy change was   -0.163350000000000     
   GDM::trust : updated trust radius is        0.330000000000000     
   GDM:         diagonal hessian shift is      0.000000000000000E+000
   GDM::PreWSS: input subspace size is                  2
   GDM::PreWSS: working subspace size set to            2
   GDM::PrEWSS: # of linearly dependent vectors =            0
   GDM::PrEWSS: Max dev from orthonormality =   2.854487479719836E-015
   GDM::BFGS:   lowest Hinv e-value    0.593377465758082     
   GDM::BFGS:   highest Hinv e-value    1.52648150594611     
   GDM::      : max scaling in EWCs is          1.41421356237309     
   GDM::      : max rotation in step is       -8.775338423991400E-002
   GDM::        grad.step =   -1.80073202245325     
   ------- Leaving GDM -- hopefully with a step in the right direction! --------
 
    2    -538.2412572564      1.14E+00  Gap = 60.30 eV  Descent step
 
   ------------------- Entering Geometric Direct Minimization ------------------
   GDM::trust : actual energy change is        -1.71787821265980     
   GDM::trust : predicted energy change was   -0.162344198187972     
   GDM::trust : updated trust radius is        0.330000000000000     
   GDM:         diagonal hessian shift is      0.000000000000000E+000
   GDM::PreWSS: input subspace size is                  3
   GDM::PreWSS: working subspace size set to            3
   GDM::PrEWSS: # of linearly dependent vectors =            0
   GDM::PrEWSS: Max dev from orthonormality =   2.375391550124561E-013
   GDM::BFGS:   lowest Hinv e-value    0.440646023355513     
   GDM::BFGS:   highest Hinv e-value    1.62429606433709     
   GDM::      : max scaling in EWCs is          1.41421356237309     
   GDM::      : max rotation in step is       -5.484977180085629E-002
   GDM::        grad.step =   -1.45910678274249     
   ------- Leaving GDM -- hopefully with a step in the right direction! --------
 
    3    -539.9591354690      7.42E-01  Gap = 60.30 eV  Descent step
 
   ------------------- Entering Geometric Direct Minimization ------------------
   GDM::trust : actual energy change is        -1.40132691165877     
   GDM::trust : predicted energy change was   -0.156921923546317     
   GDM::trust : updated trust radius is        0.330000000000000     
   GDM::search:  On step            1 .  The current bracket is:
       left   : x =  0.0000E+00, e =      -539.9591354690, g = -0.5552E+01
       current: x =  0.2628E+00, e =      -541.3604623807, g = -0.5084E+01
       right  : x =  0.1000E+04, e =      1000.0000000000, g =  0.1000E+04
       next   : x =  0.2628E+01
   GDM::      : max rotation in step is       -0.548497718008563     
   ------- Leaving GDM -- hopefully with a step in the right direction! --------
 
    4    -541.3604623807      3.62E-01  Gap = 60.30 eV  Line search: understep
 
   ------------------- Entering Geometric Direct Minimization ------------------
   GDM::trust : actual energy change is        -4.48733604647884     
   GDM::trust : predicted energy change was   -0.156921923546317     
   GDM::trust : updated trust radius is        0.330000000000000     
   GDM:         diagonal hessian shift is      0.000000000000000E+000
   GDM::PreWSS: input subspace size is                  4
   GDM::PreWSS: working subspace size set to            4
   GDM::PrEWSS: # of linearly dependent vectors =            0
   GDM::PrEWSS: Max dev from orthonormality =   1.295887008812002E-012
   GDM::BFGS:   lowest Hinv e-value    0.225369242923021     
   GDM::BFGS:   highest Hinv e-value    2.09788682811749     
   GDM::      : max scaling in EWCs is          1.41421356237309     
   GDM::      : max rotation in step is        0.155598902815304     
   GDM::        grad.step =   -2.20170649013298     
   ------- Leaving GDM -- hopefully with a step in the right direction! --------
 
    5    -544.4464715155      2.22E+00  Gap = 60.30 eV  Descent step
 
   ------------------- Entering Geometric Direct Minimization ------------------
   GDM::trust : actual energy change is        -2.07535372612051     
   GDM::trust : predicted energy change was   -0.306838726311777     
   GDM::trust : updated trust radius is        0.330000000000000     
   GDM:         diagonal hessian shift is      0.000000000000000E+000
   GDM::PreWSS: input subspace size is                  5
   GDM::PreWSS: working subspace size set to            5
   GDM::PrEWSS: # of linearly dependent vectors =            0
   GDM::PrEWSS: Max dev from orthonormality =   8.474054791207664E-013
   GDM::BFGS:   lowest Hinv e-value    0.377518990066973     
   GDM::BFGS:   highest Hinv e-value    1.83131219514356     
   GDM::      : max scaling in EWCs is          2.82842712474619     
   GDM::      : max rotation in step is        0.119060883504437     
   GDM::        grad.step =   -1.83557811822970     
   ------- Leaving GDM -- hopefully with a step in the right direction! --------
 
    6    -546.5218252416      1.44E+00  Gap = 60.30 eV  Descent step
 
   ------------------- Entering Geometric Direct Minimization ------------------
   GDM::trust : actual energy change is        -1.77508958985493     
   GDM::trust : predicted energy change was   -0.160054827972897     
   GDM::trust : updated trust radius is        0.330000000000000     
   GDM:         diagonal hessian shift is      0.000000000000000E+000
   GDM::PreWSS: input subspace size is                  6
   GDM::PreWSS: working subspace size set to            6
   GDM::PrEWSS: # of linearly dependent vectors =            0
   GDM::PrEWSS: Max dev from orthonormality =   6.705100016879406E-012
   GDM::BFGS:   lowest Hinv e-value    0.317055684020331     
   GDM::BFGS:   highest Hinv e-value    1.76139922682894     
   GDM::      : max scaling in EWCs is          2.82842712474619     
   GDM::      : max rotation in step is       -0.159362536702468     
   GDM::        grad.step =   -1.91230966560208     
   ------- Leaving GDM -- hopefully with a step in the right direction! --------
 
    7    -548.2969148315      1.98E+00  Gap = 60.30 eV  Descent step
 
   ------------------- Entering Geometric Direct Minimization ------------------
   GDM::trust : actual energy change is        -1.82037499075659     
   GDM::trust : predicted energy change was   -0.157131285088322     
   GDM::trust : updated trust radius is        0.330000000000000     
   GDM:         diagonal hessian shift is      0.000000000000000E+000
   GDM::PreWSS: input subspace size is                  7
   GDM::PreWSS: working subspace size set to            7
   GDM::PrEWSS: # of linearly dependent vectors =            0
   GDM::PrEWSS: Max dev from orthonormality =   3.018862937409494E-012
   GDM::BFGS:   lowest Hinv e-value    0.291375625146660     
   GDM::BFGS:   highest Hinv e-value    1.69989816380891     
   GDM::      : max scaling in EWCs is          2.82842712474619     
   GDM::      : max rotation in step is        0.253841814122226     
   GDM::        grad.step =   -1.88330301534917     
   ------- Leaving GDM -- hopefully with a step in the right direction! --------
 
    8    -550.1172898222      2.01E+00  Gap = -67.99 eV  Descent step
 
   ------------------- Entering Geometric Direct Minimization ------------------
   GDM::trust : actual energy change is        -1.77286538130477     
   GDM::trust : predicted energy change was   -0.173438728689554     
   GDM::trust : updated trust radius is        0.330000000000000     
   GDM:         diagonal hessian shift is      0.000000000000000E+000
   GDM::PreWSS: input subspace size is                  8
   GDM::PreWSS: working subspace size set to            8
   GDM::PrEWSS: # of linearly dependent vectors =            0
   GDM::PrEWSS: Max dev from orthonormality =   1.447210407068411E-011
   GDM::BFGS:   lowest Hinv e-value    0.268560023038545     
   GDM::BFGS:   highest Hinv e-value    2.19830282195850     
   GDM::      : max scaling in EWCs is          2.82842712474619     
   GDM::      : max rotation in step is       -0.482439534969235     
   GDM::        grad.step =   -2.04472651440806     
   ------- Leaving GDM -- hopefully with a step in the right direction! --------
 
    9    -551.8901552035      3.20E+00  Gap = -67.99 eV  Descent step
 
   ------------------- Entering Geometric Direct Minimization ------------------
   GDM::trust : actual energy change is        -1.71592480581046     
   GDM::trust : predicted energy change was   -0.214179356087460     
   GDM::trust : updated trust radius is        0.330000000000000     
   GDM:         diagonal hessian shift is      0.000000000000000E+000
   GDM::PreWSS: input subspace size is                  9
   GDM::PreWSS: working subspace size set to            9
   GDM::PrEWSS: # of linearly dependent vectors =            0
   GDM::PrEWSS: Max dev from orthonormality =   6.830275928182417E-012
   GDM::BFGS:   lowest Hinv e-value    0.253248538169291     
   GDM::BFGS:   highest Hinv e-value    1.89482625327950     
   GDM::      : max scaling in EWCs is          2.82842712474619     
   GDM::      : max rotation in step is        0.136390311919834     
   GDM::        grad.step =   -1.16800963220828     
   ------- Leaving GDM -- hopefully with a step in the right direction! --------
 
   10    -553.6060800094      6.69E-01  Gap = -67.99 eV  Descent step
 
   ------------------- Entering Geometric Direct Minimization ------------------
   GDM::trust : actual energy change is        -1.10411979584956     
   GDM::trust : predicted energy change was   -0.180646703515714     
   GDM::trust : updated trust radius is        0.330000000000000     
   GDM:         diagonal hessian shift is      0.000000000000000E+000
   GDM::PreWSS: input subspace size is                 10
   GDM::PreWSS: working subspace size set to           10
   GDM::PrEWSS: # of linearly dependent vectors =            0
   GDM::PrEWSS: Max dev from orthonormality =   2.955739819565650E-012
   GDM::BFGS:   lowest Hinv e-value    0.239642954423626     
   GDM::BFGS:   highest Hinv e-value    2.36050695137282     
   GDM::      : max scaling in EWCs is          2.82842712474619     
   GDM::      : max rotation in step is       -0.154806852034587     
   GDM::        grad.step =   -1.10332992666123     
   ------- Leaving GDM -- hopefully with a step in the right direction! --------
 
   11    -554.7101998052      7.69E-01  Gap = -67.99 eV  Descent step
 
   ------------------- Entering Geometric Direct Minimization ------------------
   GDM::trust : actual energy change is        -1.05371823375469     
   GDM::trust : predicted energy change was   -0.151042564858271     
   GDM::trust : updated trust radius is        0.330000000000000     
   GDM:         diagonal hessian shift is      0.000000000000000E+000
   GDM::PreWSS: input subspace size is                 11
   GDM::PreWSS: working subspace size set to           11
   GDM::PrEWSS: # of linearly dependent vectors =            0
   GDM::PrEWSS: Max dev from orthonormality =   5.423087326428266E-012
   GDM::BFGS:   lowest Hinv e-value    0.190404502645136     
   GDM::BFGS:   highest Hinv e-value    2.26637407084458     
   GDM::      : max scaling in EWCs is          2.82842712474619     
   GDM::      : max rotation in step is       -0.275682552232590     
   GDM::        grad.step =   -1.23527731241952     
   ------- Leaving GDM -- hopefully with a step in the right direction! --------
 
   12    -555.7639180390      1.11E+00  Gap = -67.99 eV  Descent step
 
   ------------------- Entering Geometric Direct Minimization ------------------
   GDM::trust : actual energy change is        -1.14427109863152     
   GDM::trust : predicted energy change was   -0.147736061963786     
   GDM::trust : updated trust radius is        0.330000000000000     
   GDM:         diagonal hessian shift is      0.000000000000000E+000
   GDM::PreWSS: input subspace size is                 12
   GDM::PreWSS: working subspace size set to           12
   GDM::PrEWSS: # of linearly dependent vectors =            0
   GDM::PrEWSS: Max dev from orthonormality =   6.286284860712588E-012
   GDM::BFGS:   lowest Hinv e-value    0.167911965387931     
   GDM::BFGS:   highest Hinv e-value    2.65216464761359     
   GDM::      : max scaling in EWCs is          2.82842712474619     
   GDM::      : max rotation in step is       -0.166416460001667     
   GDM::        grad.step =   -1.15083050896269     
   ------- Leaving GDM -- hopefully with a step in the right direction! --------
 
   13    -556.9081891376      1.07E+00  Gap = -67.99 eV  Descent step
 
   ------------------- Entering Geometric Direct Minimization ------------------
   GDM::trust : actual energy change is        -1.08601505209356     
   GDM::trust : predicted energy change was   -0.161318804655153     
   GDM::trust : updated trust radius is        0.330000000000000     
   GDM:         diagonal hessian shift is      0.000000000000000E+000
   GDM::PreWSS: input subspace size is                 13
   GDM::PreWSS: working subspace size set to           13
   GDM::PrEWSS: # of linearly dependent vectors =            0
   GDM::PrEWSS: Max dev from orthonormality =   8.066824985775156E-012
   GDM::BFGS:   lowest Hinv e-value    0.155322586114877     
   GDM::BFGS:   highest Hinv e-value    3.27692547824666     
   GDM::      : max scaling in EWCs is          2.82842712474619     
   GDM::      : max rotation in step is       -0.178150353790588     
   GDM::        grad.step =  -0.971951638964870     
   ------- Leaving GDM -- hopefully with a step in the right direction! --------
 
   14    -557.9942041897      5.62E-01  Gap = -67.99 eV  Descent step
 
   ------------------- Entering Geometric Direct Minimization ------------------
   GDM::trust : actual energy change is       -0.922112154070874     
   GDM::trust : predicted energy change was   -0.150267537381902     
   GDM::trust : updated trust radius is        0.330000000000000     
   GDM:         diagonal hessian shift is      0.000000000000000E+000
   GDM::PreWSS: input subspace size is                 14
   GDM::PreWSS: working subspace size set to           14
   GDM::PrEWSS: # of linearly dependent vectors =            0
   GDM::PrEWSS: Max dev from orthonormality =   5.332428942850242E-012
   GDM::BFGS:   lowest Hinv e-value    0.142518813458387     
   GDM::BFGS:   highest Hinv e-value    3.56161372612044     
   GDM::      : max scaling in EWCs is          2.82842712474619     
   GDM::      : max rotation in step is       -0.128295377630151     
   GDM::        grad.step =  -0.914288383578652     
   ------- Leaving GDM -- hopefully with a step in the right direction! --------
 
   15    -558.9163163438      6.27E-01  Gap = 30.60 eV  Descent step
 
   ------------------- Entering Geometric Direct Minimization ------------------
   GDM::trust : actual energy change is       -0.871686832330738     
   GDM::trust : predicted energy change was   -0.143980881541731     
   GDM::trust : updated trust radius is        0.330000000000000     
   GDM:         diagonal hessian shift is      0.000000000000000E+000
   GDM::PreWSS: input subspace size is                 15
   GDM::PreWSS: working subspace size set to           15
   GDM::PrEWSS: # of linearly dependent vectors =            0
   GDM::PrEWSS: Max dev from orthonormality =   7.611133945317761E-012
   GDM::BFGS:   lowest Hinv e-value    0.122189287352833     
   GDM::BFGS:   highest Hinv e-value    3.85291025291836     
   GDM::      : max scaling in EWCs is          2.82842712474619     
   GDM::      : max rotation in step is        0.145591405781139     
   GDM::        grad.step =  -0.990349992467620     
   ------- Leaving GDM -- hopefully with a step in the right direction! --------
 
   16    -559.7880031761      7.58E-01  Gap = 30.60 eV  Descent step
 
   ------------------- Entering Geometric Direct Minimization ------------------
   GDM::trust : actual energy change is       -0.920312037360759     
   GDM::trust : predicted energy change was   -0.146739994005265     
   GDM::trust : updated trust radius is        0.330000000000000     
   GDM:         diagonal hessian shift is      0.000000000000000E+000
   GDM::PreWSS: input subspace size is                 16
   GDM::PreWSS: working subspace size set to           16
   GDM::PrEWSS: # of linearly dependent vectors =            0
   GDM::PrEWSS: Max dev from orthonormality =   7.537274623881096E-012
   GDM::BFGS:   lowest Hinv e-value    0.107762276261611     
   GDM::BFGS:   highest Hinv e-value    4.14694705460384     
   GDM::      : max scaling in EWCs is          2.82842712474619     
   GDM::      : max rotation in step is        0.160580766252613     
   GDM::        grad.step =   -1.03778346697487     
   ------- Leaving GDM -- hopefully with a step in the right direction! --------
 
   17    -560.7083152134      9.85E-01  Gap = 30.60 eV  Descent step
 
   ------------------- Entering Geometric Direct Minimization ------------------
   GDM::trust : actual energy change is       -0.965246840710734     
   GDM::trust : predicted energy change was   -0.167083925531466     
   GDM::trust : updated trust radius is        0.330000000000000     
   GDM:         diagonal hessian shift is      0.000000000000000E+000
   GDM::PreWSS: input subspace size is                 17
   GDM::PreWSS: working subspace size set to           17
   GDM::PrEWSS: # of linearly dependent vectors =            0
   GDM::PrEWSS: Max dev from orthonormality =   1.276614924883290E-011
   GDM::BFGS:   lowest Hinv e-value    9.619649043361604E-002
   GDM::BFGS:   highest Hinv e-value    4.55918852787702     
   GDM::      : max scaling in EWCs is          2.82842712474619     
   GDM::      : max rotation in step is        0.428866167977363     
   GDM::        grad.step =   -1.29656352996065     
   ------- Leaving GDM -- hopefully with a step in the right direction! --------
 
   18    -561.6735620542      1.81E+00  Gap = 30.60 eV  Descent step
 
   ------------------- Entering Geometric Direct Minimization ------------------
   GDM::trust : actual energy change is        -1.07573795938811     
   GDM::trust : predicted energy change was   -0.204857587725883     
   GDM::trust : updated trust radius is        0.330000000000000     
   GDM:         diagonal hessian shift is      0.000000000000000E+000
   GDM::PreWSS: input subspace size is                 18
   GDM::PreWSS: working subspace size set to           18
   GDM::PrEWSS: # of linearly dependent vectors =            0
   GDM::PrEWSS: Max dev from orthonormality =   3.864970843370230E-012
   GDM::BFGS:   lowest Hinv e-value    6.540129770489558E-002
   GDM::BFGS:   highest Hinv e-value    5.02299086843172     
   GDM::      : max scaling in EWCs is          2.82842712474619     
   GDM::      : max rotation in step is        0.245688216781343     
   GDM::        grad.step =  -0.862504152244228     
   ------- Leaving GDM -- hopefully with a step in the right direction! --------
 
   19    -562.7493000135      9.34E-01  Gap = 30.60 eV  Descent step
 
   ------------------- Entering Geometric Direct Minimization ------------------
   GDM::trust : actual energy change is       -0.825711012958095     
   GDM::trust : predicted energy change was   -0.276991444032057     
   GDM::trust : updated trust radius is        0.330000000000000     
   GDM:         diagonal hessian shift is      0.000000000000000E+000
   GDM::PreWSS: input subspace size is                 19
   GDM::PreWSS: working subspace size set to           18
   GDM::PrEWSS: # of linearly dependent vectors =            0
   GDM::PrEWSS: Max dev from orthonormality =   3.864405323517062E-012
   GDM::BFGS:   lowest Hinv e-value    0.142243039351662     
   GDM::BFGS:   highest Hinv e-value    5.22511396550493     
   GDM::      : max scaling in EWCs is          2.82842712474619     
   GDM::      : max rotation in step is       -0.120630639944255     
   GDM::        grad.step =  -0.711707162089103     
   ------- Leaving GDM -- hopefully with a step in the right direction! --------
 
   20    -563.5750110265      4.28E-01  Gap = 30.60 eV  Descent step
 
   ------------------- Entering Geometric Direct Minimization ------------------
   GDM::trust : actual energy change is       -0.679491493228966     
   GDM::trust : predicted energy change was   -0.137802902285144     
   GDM::trust : updated trust radius is        0.330000000000000     
   GDM:         diagonal hessian shift is      0.000000000000000E+000
   GDM::PreWSS: input subspace size is                 19
   GDM::PreWSS: working subspace size set to           18
   GDM::PrEWSS: # of linearly dependent vectors =            0
   GDM::PrEWSS: Max dev from orthonormality =   9.588240791613689E-012
   GDM::BFGS:   lowest Hinv e-value    0.156554944789093     
   GDM::BFGS:   highest Hinv e-value    5.37808913243259     
   GDM::      : max scaling in EWCs is          2.82842712474619     
   GDM::      : max rotation in step is        0.253524271127850     
   GDM::        grad.step =  -0.675889739966563     
   ------- Leaving GDM -- hopefully with a step in the right direction! --------
 
   21    -564.2545025197      6.67E-01  Gap = 30.60 eV  Descent step
 
   ------------------- Entering Geometric Direct Minimization ------------------
   GDM::trust : actual energy change is       -0.625025190693805     
   GDM::trust : predicted energy change was   -0.138595128991034     
   GDM::trust : updated trust radius is        0.330000000000000     
   GDM:         diagonal hessian shift is      0.000000000000000E+000
   GDM::PreWSS: input subspace size is                 19
   GDM::PreWSS: working subspace size set to           18
   GDM::PrEWSS: # of linearly dependent vectors =            0
   GDM::PrEWSS: Max dev from orthonormality =   6.322808596137541E-012
   GDM::BFGS:   lowest Hinv e-value    0.139364160955852     
   GDM::BFGS:   highest Hinv e-value    5.62524122998131     
   GDM::      : max scaling in EWCs is          2.82842712474619     
   GDM::      : max rotation in step is        0.295325960015489     
   GDM::        grad.step =  -0.519812250241563     
   ------- Leaving GDM -- hopefully with a step in the right direction! --------
 
   22    -564.8795277104      6.01E-01  Gap = 30.60 eV  Descent step
 
   ------------------- Entering Geometric Direct Minimization ------------------
   GDM::trust : actual energy change is       -0.456701335369189     
   GDM::trust : predicted energy change was   -0.161011740146921     
   GDM::trust : updated trust radius is        0.330000000000000     
   GDM:         diagonal hessian shift is      0.000000000000000E+000
   GDM::PreWSS: input subspace size is                 19
   GDM::PreWSS: working subspace size set to           18
   GDM::PrEWSS: # of linearly dependent vectors =            0
   GDM::PrEWSS: Max dev from orthonormality =   3.796313957638020E-012
   GDM::BFGS:   lowest Hinv e-value    0.202965812693577     
   GDM::BFGS:   highest Hinv e-value    5.89169860264293     
   GDM::      : max scaling in EWCs is          2.82842712474619     
   GDM::      : max rotation in step is       -0.245338096330749     
   GDM::        grad.step =  -0.386185410618814     
   ------- Leaving GDM -- hopefully with a step in the right direction! --------
 
   23    -565.3362290458      3.68E-01  Gap = 30.60 eV  Descent step
 
   ------------------- Entering Geometric Direct Minimization ------------------
   GDM::trust : actual energy change is       -0.347897042875047     
   GDM::trust : predicted energy change was   -0.141796046482409     
   GDM::trust : updated trust radius is        0.330000000000000     
   GDM:         diagonal hessian shift is      0.000000000000000E+000
   GDM::PreWSS: input subspace size is                 19
   GDM::PreWSS: working subspace size set to           18
   GDM::PrEWSS: # of linearly dependent vectors =            0
   GDM::PrEWSS: Max dev from orthonormality =   3.420871225179312E-012
   GDM::BFGS:   lowest Hinv e-value    0.211875679470282     
   GDM::BFGS:   highest Hinv e-value    5.97454368795340     
   GDM::      : max scaling in EWCs is          2.82842712474619     
   GDM::      : max rotation in step is       -0.311212931419264     
   GDM::        grad.step =  -0.283839258854562     
   ------- Leaving GDM -- hopefully with a step in the right direction! --------
 
   24    -565.6841260887      2.87E-01  Gap = 30.60 eV  Descent step
 
   ------------------- Entering Geometric Direct Minimization ------------------
   GDM::trust : actual energy change is       -0.248853140253232     
   GDM::trust : predicted energy change was   -0.137529870057387     
   GDM::trust : updated trust radius is        0.330000000000000     
   GDM:         diagonal hessian shift is      0.000000000000000E+000
   GDM::PreWSS: input subspace size is                 19
   GDM::PreWSS: working subspace size set to           18
   GDM::PrEWSS: # of linearly dependent vectors =            0
   GDM::PrEWSS: Max dev from orthonormality =   2.081307348689165E-012
   GDM::BFGS:   lowest Hinv e-value    0.225384651120099     
   GDM::BFGS:   highest Hinv e-value    5.99147044245432     
   GDM::      : max scaling in EWCs is          2.82842712474619     
   GDM::      : max rotation in step is       -0.457881365373241     
   GDM::        grad.step =  -0.242546566105057     
   ------- Leaving GDM -- hopefully with a step in the right direction! --------
 
   25    -565.9329792289      3.61E-01  Gap = 30.60 eV  Descent step
 
   ------------------- Entering Geometric Direct Minimization ------------------
   GDM::trust : actual energy change is       -0.239022988624811     
   GDM::trust : predicted energy change was   -0.141011126852639     
   GDM::trust : updated trust radius is        0.330000000000000     
   GDM:         diagonal hessian shift is      0.000000000000000E+000
   GDM::PreWSS: input subspace size is                 19
   GDM::PreWSS: working subspace size set to           18
   GDM::PrEWSS: # of linearly dependent vectors =            0
   GDM::PrEWSS: Max dev from orthonormality =   1.126387177974308E-012
   GDM::BFGS:   lowest Hinv e-value    0.173664197184141     
   GDM::BFGS:   highest Hinv e-value    22.2789543531724     
   GDM::      : max scaling in EWCs is          2.82842712474619     
   GDM::      : max rotation in step is       -0.483062559443065     
   GDM::        grad.step =  -0.230196129020404     
   ------- Leaving GDM -- hopefully with a step in the right direction! --------
 
   26    -566.1720022175      3.61E-01  Gap = 30.60 eV  Descent step
 
   ------------------- Entering Geometric Direct Minimization ------------------
   GDM::trust : actual energy change is       -0.123702584810985     
   GDM::trust : predicted energy change was   -0.153190162392282     
   GDM::trust : updated trust radius is        0.330000000000000     
   GDM:         diagonal hessian shift is      0.000000000000000E+000
   GDM::PreWSS: input subspace size is                 19
   GDM::PreWSS: working subspace size set to           18
   GDM::PrEWSS: # of linearly dependent vectors =            0
   GDM::PrEWSS: Max dev from orthonormality =   1.129103754937688E-012
   GDM::BFGS:   lowest Hinv e-value    0.202961656848783     
   GDM::BFGS:   highest Hinv e-value    8.87391407174729     
   GDM::      : max scaling in EWCs is          2.82842712474619     
   GDM::      : max rotation in step is       -0.298660505352235     
   GDM::        grad.step =  -0.254347694693061     
   ------- Leaving GDM -- hopefully with a step in the right direction! --------
 
   27    -566.2957048024      2.55E-01  Gap = 30.60 eV  Descent step
 
   ------------------- Entering Geometric Direct Minimization ------------------
   GDM::trust : actual energy change is       -3.695986966931741E-003
   GDM::trust : predicted energy change was   -0.300823112610181     
   GDM::trust : updated trust radius is        0.330000000000000     
   GDM:         diagonal hessian shift is      0.000000000000000E+000
   GDM::PreWSS: input subspace size is                 19
   GDM::PreWSS: working subspace size set to           18
   GDM::PrEWSS: # of linearly dependent vectors =            0
   GDM::PrEWSS: Max dev from orthonormality =   2.049768341172431E-012
   GDM::BFGS:   lowest Hinv e-value    0.132086832240434     
   GDM::BFGS:   highest Hinv e-value    6.51072678296635     
   GDM::      : max scaling in EWCs is          2.82842712474619     
   GDM::      : max rotation in step is       -0.347711729321394     
   GDM::        grad.step =  -0.377642632997868     
   ------- Leaving GDM -- hopefully with a step in the right direction! --------
 
   28    -566.2994007893      4.26E-01  Gap = -22.07 eV  Descent step
 
   ------------------- Entering Geometric Direct Minimization ------------------
   GDM::trust : actual energy change is        5.831341407429136E-003
   GDM::trust : predicted energy change was   -0.477878029119335     
   GDM::trust : updated trust radius is        0.108900000000000     
   GDM::search:  On step            1 .  The current bracket is:
       left   : x =  0.0000E+00, e =      -566.2994007893, g = -0.5207E+00
       current: x =  0.7252E+00, e =      -566.2935694479, g =  0.5767E+00
       right  : x =  0.1000E+04, e =      1000.0000000000, g =  0.1000E+04
       next   : x =  0.3571E+00
   GDM::      : max rotation in step is       -0.171212105317987     
   ------- Leaving GDM -- hopefully with a step in the right direction! --------
 
   29    -566.2935694479      3.56E-02  Gap = -22.07 eV  Line search: overstep
 
   ------------------- Entering Geometric Direct Minimization ------------------
   GDM::trust : actual energy change is       -9.941738654117671E-002
   GDM::trust : predicted energy change was   -0.477878029119335     
   GDM::trust : updated trust radius is        0.108900000000000     
   GDM:         diagonal hessian shift is      0.000000000000000E+000
   GDM::PreWSS: input subspace size is                 19
   GDM::PreWSS: working subspace size set to           18
   GDM::PrEWSS: # of linearly dependent vectors =            0
   GDM::PrEWSS: Max dev from orthonormality =   1.475396194106082E-012
   GDM::BFGS:   lowest Hinv e-value    0.190448852413378     
   GDM::BFGS:   highest Hinv e-value    7.19493401259370     
   GDM::      : max scaling in EWCs is          2.82842712474619     
   GDM::      : max rotation in step is        0.169117014958122     
   GDM::        grad.step =  -3.229866261606415E-002
   ------- Leaving GDM -- hopefully with a step in the right direction! --------
 
   30    -566.3988181759      1.63E-01  Gap = -22.07 eV  Descent step
 
   ------------------- Entering Geometric Direct Minimization ------------------
   GDM::trust : actual energy change is       -2.724615334034297E-002
   GDM::trust : predicted energy change was   -1.685287970252692E-002
   GDM::trust : updated trust radius is        0.330000000000000     
   GDM:         diagonal hessian shift is      0.000000000000000E+000
   GDM::PreWSS: input subspace size is                 19
   GDM::PreWSS: working subspace size set to           18
   GDM::PrEWSS: # of linearly dependent vectors =            0
   GDM::PrEWSS: Max dev from orthonormality =   1.612928540728475E-012
   GDM::BFGS:   lowest Hinv e-value    0.190526161203292     
   GDM::BFGS:   highest Hinv e-value    7.10038545091606     
   GDM::trust : dogleg step length is          0.330000000000000     
   GDM::      : max scaling in EWCs is          2.82842712474619     
   GDM::      : max rotation in step is        0.325217281208577     
   GDM::        grad.step =  -7.052211935063507E-002
   ------- Leaving GDM -- hopefully with a step in the right direction! --------
 
   31    -566.4260643292      9.51E-02  Gap = -22.07 eV  Dog-leg BFGS step
 
   ------------------- Entering Geometric Direct Minimization ------------------
   GDM::trust : actual energy change is       -1.782754510793438E-002
   GDM::trust : predicted energy change was   -8.856295855690335E-002
   GDM::trust : updated trust radius is        0.330000000000000     
   GDM:         diagonal hessian shift is      0.000000000000000E+000
   GDM::PreWSS: input subspace size is                 19
   GDM::PreWSS: working subspace size set to           18
   GDM::PrEWSS: # of linearly dependent vectors =            0
   GDM::PrEWSS: Max dev from orthonormality =   2.025758033541436E-012
   GDM::BFGS:   lowest Hinv e-value    0.210866070933094     
   GDM::BFGS:   highest Hinv e-value    7.19202211901585     
   GDM::      : max scaling in EWCs is          2.82842712474619     
   GDM::      : max rotation in step is        0.158640487460217     
   GDM::        grad.step =  -5.056200314005197E-002
   ------- Leaving GDM -- hopefully with a step in the right direction! --------
 
   32    -566.4438918743      8.70E-02  Gap = -22.07 eV  Normal BFGS step
 
   ------------------- Entering Geometric Direct Minimization ------------------
   GDM::trust : actual energy change is       -1.411931113716491E-002
   GDM::trust : predicted energy change was   -7.584300471007797E-002
   GDM::trust : updated trust radius is        0.330000000000000     
   GDM:         diagonal hessian shift is      0.000000000000000E+000
   GDM::PreWSS: input subspace size is                 19
   GDM::PreWSS: working subspace size set to           18
   GDM::PrEWSS: # of linearly dependent vectors =            0
   GDM::PrEWSS: Max dev from orthonormality =   3.799321968145364E-013
   GDM::BFGS:   lowest Hinv e-value    0.191078794912870     
   GDM::BFGS:   highest Hinv e-value    6.69094313281150     
   GDM::      : max scaling in EWCs is          2.82842712474619     
   GDM::      : max rotation in step is        0.222738593825929     
   GDM::        grad.step =  -4.051715114426854E-002
   ------- Leaving GDM -- hopefully with a step in the right direction! --------
 
   33    -566.4580111855      8.72E-02  Gap = -22.07 eV  Normal BFGS step
 
   ------------------- Entering Geometric Direct Minimization ------------------
   GDM::trust : actual energy change is        1.576351161702405E-002
   GDM::trust : predicted energy change was   -6.077572671640280E-002
   GDM::trust : updated trust radius is        0.108900000000000     
   GDM::search:  On step            1 .  The current bracket is:
       left   : x =  0.0000E+00, e =      -566.4580111855, g = -0.8825E-01
       current: x =  0.4591E+00, e =      -566.4422476738, g =  0.1503E+00
       right  : x =  0.1000E+04, e =      1000.0000000000, g =  0.1000E+04
       next   : x =  0.1653E+00
   GDM::      : max rotation in step is        8.017614602358432E-002
   ------- Leaving GDM -- hopefully with a step in the right direction! --------
 
   34    -566.4422476738      1.32E-02  Gap = -22.07 eV  Line search: overstep
 
   ------------------- Entering Geometric Direct Minimization ------------------
   GDM::trust : actual energy change is       -7.094653602621293E-003
   GDM::trust : predicted energy change was   -6.077572671640280E-002
   GDM::trust : updated trust radius is        0.108900000000000     
   GDM:         diagonal hessian shift is      0.000000000000000E+000
   GDM::PreWSS: input subspace size is                 19
   GDM::PreWSS: working subspace size set to           18
   GDM::PrEWSS: # of linearly dependent vectors =            0
   GDM::PrEWSS: Max dev from orthonormality =   4.686390164820864E-013
   GDM::BFGS:   lowest Hinv e-value    0.187635550911568     
   GDM::BFGS:   highest Hinv e-value    4.65214962148586     
   GDM::      : max scaling in EWCs is          2.82842712474619     
   GDM::      : max rotation in step is        0.136992627182425     
   GDM::        grad.step =  -2.048933707358083E-002
   ------- Leaving GDM -- hopefully with a step in the right direction! --------
 
   35    -566.4651058391      8.37E-02  Gap = -22.07 eV  Descent step
 
   ------------------- Entering Geometric Direct Minimization ------------------
   GDM::trust : actual energy change is        1.637037798445817E-003
   GDM::trust : predicted energy change was   -3.249699296711892E-002
   GDM::trust : updated trust radius is        0.108900000000000     
   GDM::search:  On step            1 .  The current bracket is:
       left   : x =  0.0000E+00, e =      -566.4651058391, g = -0.1101E+00
       current: x =  0.1861E+00, e =      -566.4634688013, g =  0.1339E+00
       right  : x =  0.1000E+04, e =      1000.0000000000, g =  0.1000E+04
       next   : x =  0.8618E-01
   GDM::      : max rotation in step is        6.342855825164377E-002
   ------- Leaving GDM -- hopefully with a step in the right direction! --------
 
   36    -566.4634688013      1.58E-02  Gap = -22.07 eV  Line search: overstep
 
   ------------------- Entering Geometric Direct Minimization ------------------
   GDM::trust : actual energy change is       -4.881750024082976E-003
   GDM::trust : predicted energy change was   -3.249699296711892E-002
   GDM::trust : updated trust radius is        0.108900000000000     
   GDM:         diagonal hessian shift is      0.000000000000000E+000
   GDM::PreWSS: input subspace size is                 19
   GDM::PreWSS: working subspace size set to           18
   GDM::PrEWSS: # of linearly dependent vectors =            0
   GDM::PrEWSS: Max dev from orthonormality =   3.241157342515066E-013
   GDM::BFGS:   lowest Hinv e-value    0.195737135820644     
   GDM::BFGS:   highest Hinv e-value    5.06220906367115     
   GDM::trust : dogleg step length is          0.108900000000000     
   GDM::      : max scaling in EWCs is          2.82842712474619     
   GDM::      : max rotation in step is        0.219055301260189     
   GDM::        grad.step =  -9.099370122236702E-003
   ------- Leaving GDM -- hopefully with a step in the right direction! --------
 
   37    -566.4699875891      6.08E-02  Gap = -22.07 eV  Dog-leg BFGS step
 
   ------------------- Entering Geometric Direct Minimization ------------------
   GDM::trust : actual energy change is       -5.111292648507515E-003
   GDM::trust : predicted energy change was   -1.470780810758823E-002
   GDM::trust : updated trust radius is        0.108900000000000     
   GDM:         diagonal hessian shift is      0.000000000000000E+000
   GDM::PreWSS: input subspace size is                 19
   GDM::PreWSS: working subspace size set to           18
   GDM::PrEWSS: # of linearly dependent vectors =            0
   GDM::PrEWSS: Max dev from orthonormality =   5.151920556834000E-013
   GDM::BFGS:   lowest Hinv e-value    0.196095671310427     
   GDM::BFGS:   highest Hinv e-value    4.46192117174483     
   GDM::trust : dogleg step length is          0.108900000000000     
   GDM::      : max scaling in EWCs is          2.64183862959535     
   GDM::      : max rotation in step is        0.226137675172085     
   GDM::        grad.step =  -7.446546989361620E-003
   ------- Leaving GDM -- hopefully with a step in the right direction! --------
 
   38    -566.4750988817      4.01E-02  Gap = -22.07 eV  Dog-leg BFGS step
 
   ------------------- Entering Geometric Direct Minimization ------------------
   GDM::trust : actual energy change is       -1.630303776096298E-003
   GDM::trust : predicted energy change was   -1.319413456270804E-002
   GDM::trust : updated trust radius is        0.108900000000000     
   GDM:         diagonal hessian shift is      0.000000000000000E+000
   GDM::PreWSS: input subspace size is                 19
   GDM::PreWSS: working subspace size set to           18
   GDM::PrEWSS: # of linearly dependent vectors =            0
   GDM::PrEWSS: Max dev from orthonormality =   3.010924842783425E-013
   GDM::BFGS:   lowest Hinv e-value    0.185004616819347     
   GDM::BFGS:   highest Hinv e-value    3.92084148348895     
   GDM::      : max scaling in EWCs is          2.60270934109645     
   GDM::      : max rotation in step is        5.324373434404769E-002
   GDM::        grad.step =  -3.894961641395402E-003
   ------- Leaving GDM -- hopefully with a step in the right direction! --------
 
   39    -566.4767291855      3.51E-02  Gap = -22.07 eV  Normal BFGS step
 
   ------------------- Entering Geometric Direct Minimization ------------------
   GDM::trust : actual energy change is       -1.667498756660279E-003
   GDM::trust : predicted energy change was   -5.842442462093106E-003
   GDM::trust : updated trust radius is        0.330000000000000     
   GDM:         diagonal hessian shift is      0.000000000000000E+000
   GDM::PreWSS: input subspace size is                 19
   GDM::PreWSS: working subspace size set to           18
   GDM::PrEWSS: # of linearly dependent vectors =            0
   GDM::PrEWSS: Max dev from orthonormality =   1.166289287368727E-012
   GDM::BFGS:   lowest Hinv e-value    0.188312851169920     
   GDM::BFGS:   highest Hinv e-value    3.93492274726996     
   GDM::      : max scaling in EWCs is          2.56442415494678     
   GDM::      : max rotation in step is       -1.546520204657365E-002
   GDM::        grad.step =  -8.565417999963986E-004
   ------- Leaving GDM -- hopefully with a step in the right direction! --------
 
   40    -566.4783966843      9.20E-03  Gap = 0.00 eV  Normal BFGS step
 
   ------------------- Entering Geometric Direct Minimization ------------------
   GDM::trust : actual energy change is       -2.447200313326903E-005
   GDM::trust : predicted energy change was   -1.284812699994598E-003
   GDM::trust : updated trust radius is        0.330000000000000     
   GDM:         diagonal hessian shift is      0.000000000000000E+000
   GDM::PreWSS: input subspace size is                 19
   GDM::PreWSS: working subspace size set to           18
   GDM::PrEWSS: # of linearly dependent vectors =            0
   GDM::PrEWSS: Max dev from orthonormality =   1.053643283732697E-012
   GDM::BFGS:   lowest Hinv e-value    0.182787955555483     
   GDM::BFGS:   highest Hinv e-value    3.74172832662044     
   GDM::      : max scaling in EWCs is          2.56317790943726     
   GDM::      : max rotation in step is        1.442608413532605E-002
   GDM::        grad.step =  -6.029650240773675E-004
   ------- Leaving GDM -- hopefully with a step in the right direction! --------
 
   41    -566.4784211563      7.49E-03  Gap = -22.07 eV  Normal BFGS step
 
   ------------------- Entering Geometric Direct Minimization ------------------
   GDM::trust : actual energy change is       -2.379430824248630E-004
   GDM::trust : predicted energy change was   -9.044475361160511E-004
   GDM::trust : updated trust radius is        0.330000000000000     
   GDM:         diagonal hessian shift is      0.000000000000000E+000
   GDM::PreWSS: input subspace size is                 19
   GDM::PreWSS: working subspace size set to           18
   GDM::PrEWSS: # of linearly dependent vectors =            0
   GDM::PrEWSS: Max dev from orthonormality =   3.984104712806413E-013
   GDM::BFGS:   lowest Hinv e-value    0.174493151188994     
   GDM::BFGS:   highest Hinv e-value    3.41367940771759     
   GDM::      : max scaling in EWCs is          2.55774858323443     
   GDM::      : max rotation in step is        1.156805049645453E-002
   GDM::        grad.step =  -2.404330744153106E-004
   ------- Leaving GDM -- hopefully with a step in the right direction! --------
 
   42    -566.4786590993      3.73E-03  Gap = -22.07 eV  Normal BFGS step
 
   ------------------- Entering Geometric Direct Minimization ------------------
   GDM::trust : actual energy change is        7.581430054415250E-006
   GDM::trust : predicted energy change was   -3.606496116229658E-004
   GDM::trust : updated trust radius is        0.108900000000000     
   GDM::search:  On step            1 .  The current bracket is:
       left   : x =  0.0000E+00, e =      -566.4786590993, g = -0.7541E-02
       current: x =  0.3188E-01, e =      -566.4786515179, g =  0.8022E-02
       right  : x =  0.1000E+04, e =      1000.0000000000, g =  0.1000E+04
       next   : x =  0.1545E-01
   GDM::      : max rotation in step is        5.607216303338479E-003
   ------- Leaving GDM -- hopefully with a step in the right direction! --------
 
   43    -566.4786515179      1.12E-03  Gap = -22.07 eV  Line search: overstep
 
   ------------------- Entering Geometric Direct Minimization ------------------
   GDM::trust : actual energy change is       -5.829302199344966E-005
   GDM::trust : predicted energy change was   -3.606496116229658E-004
   GDM::trust : updated trust radius is        0.108900000000000     
   GDM:         diagonal hessian shift is      0.000000000000000E+000
   GDM::PreWSS: input subspace size is                 19
   GDM::PreWSS: working subspace size set to           18
   GDM::PrEWSS: # of linearly dependent vectors =            0
   GDM::PrEWSS: Max dev from orthonormality =   1.049708930889182E-012
   GDM::BFGS:   lowest Hinv e-value    0.176712796469386     
   GDM::BFGS:   highest Hinv e-value    3.30217132424584     
   GDM::      : max scaling in EWCs is          2.56128572697660     
   GDM::      : max rotation in step is        6.222954841420418E-003
   GDM::        grad.step =  -3.207078829181173E-005
   ------- Leaving GDM -- hopefully with a step in the right direction! --------
 
   44    -566.4787173924      1.60E-03  Gap = -22.07 eV  Normal BFGS step
 
   ------------------- Entering Geometric Direct Minimization ------------------
   GDM::trust : actual energy change is       -1.751575905473146E-005
   GDM::trust : predicted energy change was   -4.810618243771759E-005
   GDM::trust : updated trust radius is        0.330000000000000     
   GDM:         diagonal hessian shift is      0.000000000000000E+000
   GDM::PreWSS: input subspace size is                 19
   GDM::PreWSS: working subspace size set to           18
   GDM::PrEWSS: # of linearly dependent vectors =            0
   GDM::PrEWSS: Max dev from orthonormality =   4.528755842558851E-012
   GDM::BFGS:   lowest Hinv e-value    0.176876535718143     
   GDM::BFGS:   highest Hinv e-value    3.57890172964286     
   GDM::      : max scaling in EWCs is          2.56274858745972     
   GDM::      : max rotation in step is        7.394818258546492E-003
   GDM::        grad.step =  -1.091364730678117E-005
   ------- Leaving GDM -- hopefully with a step in the right direction! --------
 
   45    -566.4787349081      1.27E-03  Gap = -22.07 eV  Normal BFGS step
 
   ------------------- Entering Geometric Direct Minimization ------------------
   GDM::trust : actual energy change is       -4.522081326285843E-006
   GDM::trust : predicted energy change was   -1.637047096017175E-005
   GDM::trust : updated trust radius is        0.330000000000000     
   GDM:         diagonal hessian shift is      0.000000000000000E+000
   GDM::PreWSS: input subspace size is                 19
   GDM::PreWSS: working subspace size set to           18
   GDM::PrEWSS: # of linearly dependent vectors =            0
   GDM::PrEWSS: Max dev from orthonormality =   2.382868208306022E-012
   GDM::BFGS:   lowest Hinv e-value    0.175168583272730     
   GDM::BFGS:   highest Hinv e-value    3.34424730560979     
   GDM::      : max scaling in EWCs is          2.56177340090651     
   GDM::      : max rotation in step is        3.713132633450359E-003
   GDM::        grad.step =  -4.675151669064110E-006
   ------- Leaving GDM -- hopefully with a step in the right direction! --------
 
   46    -566.4787394302      8.91E-04  Gap = -22.07 eV  Normal BFGS step
 
   ------------------- Entering Geometric Direct Minimization ------------------
   GDM::trust : actual energy change is       -1.978016030079743E-006
   GDM::trust : predicted energy change was   -7.012727503596166E-006
   GDM::trust : updated trust radius is        0.330000000000000     
   GDM:         diagonal hessian shift is      0.000000000000000E+000
   GDM::PreWSS: input subspace size is                 19
   GDM::PreWSS: working subspace size set to           18
   GDM::PrEWSS: # of linearly dependent vectors =            0
   GDM::PrEWSS: Max dev from orthonormality =   2.133389992442503E-011
   GDM::BFGS:   lowest Hinv e-value    0.169362744737462     
   GDM::BFGS:   highest Hinv e-value    3.38247319744038     
   GDM::      : max scaling in EWCs is          2.56341409611668     
   GDM::      : max rotation in step is        1.019768364532812E-003
   GDM::        grad.step =  -1.097864810249064E-006
   ------- Leaving GDM -- hopefully with a step in the right direction! --------
 
   47    -566.4787414082      3.48E-04  Gap = -22.07 eV  Normal BFGS step
 
   ------------------- Entering Geometric Direct Minimization ------------------
   GDM::trust : actual energy change is       -4.857714657191536E-007
   GDM::trust : predicted energy change was   -1.646797215373596E-006
   GDM::trust : updated trust radius is        0.330000000000000     
   GDM:         diagonal hessian shift is      0.000000000000000E+000
   GDM::PreWSS: input subspace size is                 19
   GDM::PreWSS: working subspace size set to           18
   GDM::PrEWSS: # of linearly dependent vectors =            0
   GDM::PrEWSS: Max dev from orthonormality =   4.439844325521136E-012
   GDM::BFGS:   lowest Hinv e-value    0.159383762805758     
   GDM::BFGS:   highest Hinv e-value    3.34694925430786     
   GDM::      : max scaling in EWCs is          2.56282443686483     
   GDM::      : max rotation in step is        3.978090392289087E-004
   GDM::        grad.step =  -2.588655698902579E-007
   ------- Leaving GDM -- hopefully with a step in the right direction! --------
 
   48    -566.4787418940      1.52E-04  Gap = -22.07 eV  Normal BFGS step
 
   ------------------- Entering Geometric Direct Minimization ------------------
   GDM::trust : actual energy change is       -1.413759491697419E-007
   GDM::trust : predicted energy change was   -3.882983548353868E-007
   GDM::trust : updated trust radius is        0.330000000000000     
   GDM:         diagonal hessian shift is      0.000000000000000E+000
   GDM::PreWSS: input subspace size is                 19
   GDM::PreWSS: working subspace size set to           18
   GDM::PrEWSS: # of linearly dependent vectors =            0
   GDM::PrEWSS: Max dev from orthonormality =   5.549366521861998E-012
   GDM::BFGS:   lowest Hinv e-value    0.164148039976531     
   GDM::BFGS:   highest Hinv e-value    3.28615117282846     
   GDM::      : max scaling in EWCs is          2.56290000236067     
   GDM::      : max rotation in step is        4.471852271377359E-004
   GDM::        grad.step =  -7.145827551814270E-008
   ------- Leaving GDM -- hopefully with a step in the right direction! --------
 
   49    -566.4787420354      7.15E-05  Gap = -22.07 eV  Normal BFGS step
 
   ------------------- Entering Geometric Direct Minimization ------------------
   GDM::trust : actual energy change is       -4.004596121376380E-008
   GDM::trust : predicted energy change was   -1.071874132772140E-007
   GDM::trust : updated trust radius is        0.330000000000000     
   GDM:         diagonal hessian shift is      0.000000000000000E+000
   GDM::PreWSS: input subspace size is                 19
   GDM::PreWSS: working subspace size set to           18
   GDM::PrEWSS: # of linearly dependent vectors =            0
   GDM::PrEWSS: Max dev from orthonormality =   3.117006652786358E-012
   GDM::BFGS:   lowest Hinv e-value    0.202529190280498     
   GDM::BFGS:   highest Hinv e-value    3.45433356872125     
   GDM::      : max scaling in EWCs is          2.56294119508754     
   GDM::      : max rotation in step is        2.184234498952139E-004
   GDM::        grad.step =  -1.588417480657883E-008
   ------- Leaving GDM -- hopefully with a step in the right direction! --------
 
   50    -566.4787420754      2.92E-05  Gap = -22.07 eV  Normal BFGS step
 
   ------------------- Entering Geometric Direct Minimization ------------------
   GDM::trust : actual energy change is       -8.675897333887406E-009
   GDM::trust : predicted energy change was   -2.382626220986826E-008
   GDM::trust : updated trust radius is        0.330000000000000     
   GDM:         diagonal hessian shift is      0.000000000000000E+000
   GDM::PreWSS: input subspace size is                 19
   GDM::PreWSS: working subspace size set to           18
   GDM::PrEWSS: # of linearly dependent vectors =            0
   GDM::PrEWSS: Max dev from orthonormality =   1.708330699123906E-011
   GDM::BFGS:   lowest Hinv e-value    0.202075621522323     
   GDM::BFGS:   highest Hinv e-value    3.70094083978562     
   GDM::      : max scaling in EWCs is          2.56296229829321     
   GDM::      : max rotation in step is        3.162653823953007E-005
   GDM::        grad.step =  -2.344137955309753E-009
   ------- Leaving GDM -- hopefully with a step in the right direction! --------
 
   51    -566.4787420841      1.26E-05  Gap = -22.07 eV  Normal BFGS step
 
   ------------------- Entering Geometric Direct Minimization ------------------
   GDM::trust : actual energy change is       -1.110379344027024E-009
   GDM::trust : predicted energy change was   -3.516206932964628E-009
   GDM::trust : updated trust radius is        0.330000000000000     
   GDM:         diagonal hessian shift is      0.000000000000000E+000
   GDM::PreWSS: input subspace size is                 19
   GDM::PreWSS: working subspace size set to           18
   GDM::PrEWSS: # of linearly dependent vectors =            0
   GDM::PrEWSS: Max dev from orthonormality =   1.979792198236741E-012
   GDM::BFGS:   lowest Hinv e-value    0.203636878470201     
   GDM::BFGS:   highest Hinv e-value    3.50034131838536     
   GDM::      : max scaling in EWCs is          2.56293948531018     
   GDM::      : max rotation in step is       -3.448803034757544E-005
   GDM::        grad.step =  -3.611672689413041E-010
   ------- Leaving GDM -- hopefully with a step in the right direction! --------
 
   52    -566.4787420852      5.45E-06  Gap = -22.07 eV  Normal BFGS step
 
   ------------------- Entering Geometric Direct Minimization ------------------
   GDM::trust : actual energy change is       -1.743956090649590E-010
   GDM::trust : predicted energy change was   -5.417509034119562E-010
   GDM::trust : updated trust radius is        0.330000000000000     
   GDM:         diagonal hessian shift is      0.000000000000000E+000
   GDM::PreWSS: input subspace size is                 19
   GDM::PreWSS: working subspace size set to           18
   GDM::PrEWSS: # of linearly dependent vectors =            0
   GDM::PrEWSS: Max dev from orthonormality =   6.848237255052680E-011
   GDM::BFGS:   lowest Hinv e-value    0.205342999572256     
   GDM::BFGS:   highest Hinv e-value    3.49091208356256     
   GDM::      : max scaling in EWCs is          2.56294277415532     
   GDM::      : max rotation in step is       -5.086652706775450E-006
   GDM::        grad.step =  -5.297541124719731E-011
   ------- Leaving GDM -- hopefully with a step in the right direction! --------
 
   53    -566.4787420854      2.12E-06  Gap = -22.07 eV  Normal BFGS step
 
   ------------------- Entering Geometric Direct Minimization ------------------
   GDM::trust : actual energy change is       -2.683009370230138E-011
   GDM::trust : predicted energy change was   -7.946311687079596E-011
   GDM::trust : updated trust radius is        0.330000000000000     
   GDM:         diagonal hessian shift is      0.000000000000000E+000
   GDM::PreWSS: input subspace size is                 19
   GDM::PreWSS: working subspace size set to           18
   GDM::PrEWSS: # of linearly dependent vectors =            0
   GDM::PrEWSS: Max dev from orthonormality =   3.724218849976424E-012
   GDM::BFGS:   lowest Hinv e-value    0.211114449587903     
   GDM::BFGS:   highest Hinv e-value    3.46228994189926     
   GDM::      : max scaling in EWCs is          2.56294310595706     
   GDM::      : max rotation in step is        2.097925592668002E-006
   GDM::        grad.step =  -6.924103832397872E-012
   ------- Leaving GDM -- hopefully with a step in the right direction! --------
 
   54    -566.4787420854      9.22E-07  Gap = -22.07 eV  Normal BFGS step
 
   ------------------- Entering Geometric Direct Minimization ------------------
   GDM::trust : actual energy change is       -3.637978807091713E-012
   GDM::trust : predicted energy change was   -1.038615574859681E-011
   GDM::trust : updated trust radius is        0.330000000000000     
   GDM:         diagonal hessian shift is      0.000000000000000E+000
   GDM::PreWSS: input subspace size is                 19
   GDM::PreWSS: working subspace size set to           18
   GDM::PrEWSS: # of linearly dependent vectors =            0
   GDM::PrEWSS: Max dev from orthonormality =   5.242958844853263E-012
   GDM::BFGS:   lowest Hinv e-value    0.211255146384359     
   GDM::BFGS:   highest Hinv e-value    3.57275400531205     
   GDM::      : max scaling in EWCs is          2.56294301172403     
   GDM::      : max rotation in step is        1.192571967563138E-006
   GDM::        grad.step =  -2.059153978519936E-012
   ------- Leaving GDM -- hopefully with a step in the right direction! --------
 
   55    -566.4787420854      2.88E-07  Gap = -22.07 eV  Normal BFGS step
 
   ------------------- Entering Geometric Direct Minimization ------------------
   GDM::trust : actual energy change is       -2.273736754432321E-013
   GDM::trust : predicted energy change was   -3.088730967779904E-012
   GDM::trust : updated trust radius is        0.330000000000000     
   GDM:         diagonal hessian shift is      0.000000000000000E+000
   GDM::PreWSS: input subspace size is                 19
   GDM::PreWSS: working subspace size set to           18
   GDM::PrEWSS: # of linearly dependent vectors =            0
   GDM::PrEWSS: Max dev from orthonormality =   3.940185677731023E-011
   GDM::BFGS:   lowest Hinv e-value    0.203350158538246     
   GDM::BFGS:   highest Hinv e-value    3.50364407269639     
   GDM::      : max scaling in EWCs is          2.56294314100596     
   GDM::      : max rotation in step is       -9.388384925769428E-007
   GDM::        grad.step =  -8.577267763325080E-013
   ------- Leaving GDM -- hopefully with a step in the right direction! --------
 
   56    -566.4787420854      2.63E-07  Gap = -22.07 eV  Normal BFGS step
 
   ------------------- Entering Geometric Direct Minimization ------------------
   GDM::trust : actual energy change is       -6.821210263296962E-013
   GDM::trust : predicted energy change was   -1.286590164498762E-012
   GDM::trust : updated trust radius is        0.330000000000000     
   GDM:         diagonal hessian shift is      0.000000000000000E+000
   GDM::PreWSS: input subspace size is                 19
   GDM::PreWSS: working subspace size set to           17
   GDM::PrEWSS: # of linearly dependent vectors =            0
   GDM::PrEWSS: Max dev from orthonormality =   1.542787772534915E-011
   GDM::BFGS:   lowest Hinv e-value    0.202117656343108     
   GDM::BFGS:   highest Hinv e-value    3.49837282495245     
   GDM::      : max scaling in EWCs is          2.56294330985335     
   GDM::      : max rotation in step is       -2.752726112672944E-007
   GDM::        grad.step =  -1.330294820828052E-013
   ------- Leaving GDM -- hopefully with a step in the right direction! --------
 
   57    -566.4787420854      5.54E-08  Gap = -22.07 eV  Normal BFGS step
 
   ------------------- Entering Geometric Direct Minimization ------------------
   GDM::trust : actual energy change is       -3.410605131648481E-013
   GDM::trust : predicted energy change was   -1.995442231242078E-013
   GDM::trust : updated trust radius is        0.330000000000000     
   GDM:         diagonal hessian shift is      0.000000000000000E+000
   GDM::PreWSS: input subspace size is                 18
   GDM::PreWSS: working subspace size set to           15
   GDM::PrEWSS: # of linearly dependent vectors =            0
   GDM::PrEWSS: Max dev from orthonormality =   6.071587677070056E-012
   GDM::BFGS:   lowest Hinv e-value    0.205213335396040     
   GDM::BFGS:   highest Hinv e-value    3.56749067436369     
   GDM::      : max scaling in EWCs is          2.56294324338619     
   GDM::      : max rotation in step is        4.439462436929936E-008
   GDM::        grad.step =  -1.390179866318919E-014
   ------- Leaving GDM -- hopefully with a step in the right direction! --------
 
   58    -566.4787420854      1.97E-08  Gap = -22.07 eV  Normal BFGS step
 
   ------------------- Entering Geometric Direct Minimization ------------------
   GDM::trust : actual energy change is       -1.364242052659392E-012
   GDM::trust : predicted energy change was   -2.085269799478380E-014
   GDM::trust : updated trust radius is        0.330000000000000     
   GDM:         diagonal hessian shift is      0.000000000000000E+000
   GDM::PreWSS: input subspace size is                 16
   GDM::PreWSS: working subspace size set to           16
   GDM::PrEWSS: # of linearly dependent vectors =            1
   GDM::PrEWSS: Max dev from orthonormality =   4.413386323065538E-012
   GDM::BFGS:   lowest Hinv e-value    0.205853740421789     
   GDM::BFGS:   highest Hinv e-value    3.57289665631206     
   GDM::      : max scaling in EWCs is          2.56294325095237     
   GDM::      : max rotation in step is       -5.025925484568436E-008
   GDM::        grad.step =  -8.756650836826920E-015
   ------- Leaving GDM -- hopefully with a step in the right direction! --------
 
   59    -566.4787420854      2.99E-08  Gap = -22.07 eV  Normal BFGS step
 
   ------------------- Entering Geometric Direct Minimization ------------------
   GDM::trust : actual energy change is        1.023181539494544E-012
   GDM::trust : predicted energy change was   -1.313497625524037E-014
   GDM::trust : updated trust radius is        0.108900000000000     
   GDM::WARNING energy changes are now smaller than effective accuracy.
   GDM::        calculation will continue, but THRESH should be increased
   GDM::        or SCF_CONVERGENCE decreased.
   GDM::        effective_thresh =   2.500000000000000E-010
   GDM:         diagonal hessian shift is      0.000000000000000E+000
   GDM::PreWSS: input subspace size is                 17
   GDM::PreWSS: working subspace size set to           17
   GDM::PrEWSS: # of linearly dependent vectors =            2
   GDM::PrEWSS: Max dev from orthonormality =   3.160943728985899E-012
   GDM::BFGS:   lowest Hinv e-value    0.203952195892793     
   GDM::BFGS:   highest Hinv e-value    3.57038967036804     
   GDM::      : max scaling in EWCs is          2.56294327060354     
   GDM::      : max rotation in step is       -3.743304945798285E-008
   GDM::        grad.step =  -1.085181009398522E-014
   ------- Leaving GDM -- hopefully with a step in the right direction! --------
 
   60    -566.4787420854      5.48E-08  Gap = -22.07 eV  Normal BFGS step
 
   ------------------- Entering Geometric Direct Minimization ------------------
   GDM::trust : actual energy change is        0.000000000000000E+000
   GDM::trust : predicted energy change was   -1.627771514097783E-014
   GDM::trust : updated trust radius is        0.330000000000000     
   GDM:         diagonal hessian shift is      0.000000000000000E+000
   GDM::PreWSS: input subspace size is                 18
   GDM::PreWSS: working subspace size set to           17
   GDM::PrEWSS: # of linearly dependent vectors =            1
   GDM::PrEWSS: Max dev from orthonormality =   1.465685385559912E-011
   GDM::BFGS:   lowest Hinv e-value    0.219829405962872     
   GDM::BFGS:   highest Hinv e-value    3.54186995264794     
   GDM::      : max scaling in EWCs is          2.56294326228122     
   GDM::      : max rotation in step is       -2.114541356509083E-008
   GDM::        grad.step =  -1.181342423288538E-015
   ------- Leaving GDM -- hopefully with a step in the right direction! --------
 
   61    -566.4787420854      6.74E-09 Convergence criterion met
 ---------------------------------------
 One-Electron    Energy = -1168.4055992617
 Total Coulomb   Energy =   468.8213559888
 Alpha Exchange  Energy =    -4.4782715793
 Beta  Exchange  Energy =    -4.3415662059
 DFT   Exchange  Energy =   -35.2805950102
 DFT Correlation Energy =    -2.1723481022
 Nuclear Repu.   Energy =   179.3782820851
 Nuclear Attr.   Energy = -1689.1617349616
 Kinetic         Energy =   520.7561356999
 <S^2> = 2.0090
 SCF time:  CPU 221.70 s  wall 33.12 s
 SCF   energy in the final basis set = -566.4787420854
 Total energy in the final basis set = -566.4787420854
 
 --------------------------------------------------------------
 
                    Orbital Energies (a.u.)
 --------------------------------------------------------------
 
 Alpha MOs
 -- Occupied --
-88.816 -19.108  -7.898  -5.858  -5.857  -5.857  -2.041  -1.988
 -1.315  -1.248  -1.223  -1.220  -1.186  -1.142  -0.826  -0.650
 -0.342  -0.312  -0.312  -0.286  -0.271  -0.256  -0.218  -0.195
 -0.192
 -- Virtual --
 -0.115  -0.075  -0.064  -0.057  -0.036  -0.024  -0.021  -0.011
  0.027   0.032   0.039   0.046   0.055   0.059   0.066   0.084
  0.089   0.097   0.111   0.120   0.139   0.166   0.175   0.197
  0.216   0.217   0.226   0.228   0.233   0.241   0.269   0.284
  0.304   0.313   0.326   0.336   0.364   0.394   0.443   0.551
  0.570   0.592   0.720   0.840   0.841   0.849   0.928   0.969
  1.208   1.225   1.287   1.690   1.834   1.836   1.870   1.884
  2.041  13.661  15.908
 
 Beta MOs
 -- Occupied --
-88.816 -19.108  -7.899  -5.858  -5.858  -5.857  -2.023  -1.974
 -1.292  -1.233  -1.208  -1.200  -1.168  -1.122  -0.823  -0.650
 -0.333  -0.311  -0.309  -0.284  -0.270  -0.251  -0.203
 -- Virtual --
 -0.124  -0.103  -0.099  -0.063  -0.056  -0.036  -0.027  -0.013
 -0.001   0.009   0.029   0.036   0.042   0.054   0.060   0.063
  0.073   0.084   0.099   0.102   0.111   0.125   0.150   0.176
  0.186   0.203   0.220   0.225   0.229   0.236   0.238   0.244
  0.273   0.299   0.306   0.317   0.332   0.345   0.373   0.401
  0.450   0.550   0.571   0.592   0.723   0.838   0.840   0.848
  0.929   0.970   1.208   1.228   1.288   1.691   1.835   1.837
  1.872   1.887   2.044  13.659  15.904
 --------------------------------------------------------------
 
          Ground-State Mulliken Net Atomic Charges

     Atom                 Charge (a.u.)    Spin (a.u.)
  --------------------------------------------------------
      1 Zr                    0.636357       0.785119
      2 Zr                    0.355293       1.241579
      3 O                    -0.584760       0.021598
      4 S                    -0.406891      -0.048296
  --------------------------------------------------------
  Sum of atomic charges =     0.000000
  Sum of spin   charges =     2.000000

 -----------------------------------------------------------------
                    Cartesian Multipole Moments
 -----------------------------------------------------------------
    Charge (ESU x 10^10)
                 0.0000
    Dipole Moment (Debye)
         X      -2.3317      Y       2.5488      Z       0.0189
       Tot       3.4545
    Quadrupole Moments (Debye-Ang)
        XX     -76.1093     XY     -15.1314     YY     -57.9954
        XZ       0.0545     YZ      -0.0178     ZZ     -61.5923
    Octopole Moments (Debye-Ang^2)
       XXX     -18.0304    XXY       3.5181    XYY       3.5134
       YYY      36.4008    XXZ       0.1442    XYZ       0.0198
       YYZ       0.0108    XZZ       6.7992    YZZ       6.9550
       ZZZ       0.0220
    Hexadecapole Moments (Debye-Ang^3)
      XXXX    -821.4665   XXXY     -98.5896   XXYY    -178.7054
      XYYY     -75.2332   YYYY    -332.4061   XXXZ       0.3157
      XXYZ       0.0098   XYYZ       0.0299   YYYZ      -0.0937
      XXZZ    -135.5011   XYZZ     -22.3937   YYZZ     -74.0168
      XZZZ       0.0673   YZZZ      -0.0881   ZZZZ    -110.9390
 -----------------------------------------------------------------
Archival summary:
1\1\hpc3916\SP\ProcedureUnspecified\BasisUnspecified\r211(+,3)\liqiuy\FriJan1719:33:382020FriJan1719:33:382020\0\\#,ProcedureUnspecified,BasisUnspecified,\\56,3\Zr\O,1,1.74278\Zr,1,2.17021,2,115.06\S,3,2.21604,1,74.1721,2,-179.618,0\\\@

 Total job time:  34.31s(wall), 228.92s(cpu) 
 Fri Jan 17 19:33:38 2020

        *************************************************************
        *                                                           *
        *  Thank you very much for using Q-Chem.  Have a nice day.  *
        *                                                           *
        *************************************************************


0 sent ACK to 0 
now end server 0 ... 
cleanup process ... done

Running Job 2 of 2 ZrOx.in
qchem ZrOx.in_31724.1 /tmp/5732656.priya/ZrOx.save/ 1
/usr/usc/qchem/4.4/bin/mpi/mpirun_qchem -machinefile /usr/usc/qchem/4.4/bin/mpi/machines -np 1 /usr/usc/qchem/4.4/exe/qcprog.exe ZrOx.in_31724.1 /tmp/5732656.priya/ZrOx.save/

Process 0 of 1 is on hpc3916.hpcc.usc.edu - thread support 0
initial socket setup ...start
initial socket setup ...done 
now start server 0 ... 
Check license passed

                  Welcome to Q-Chem
     A Quantum Leap Into The Future Of Chemistry


 Q-Chem 4.4, Q-Chem, Inc., Pleasanton, CA (2016)

[...]
   GDM::PreWSS: working subspace size set to           14
   GDM::PrEWSS: # of linearly dependent vectors =           12
   GDM::PrEWSS: Max dev from orthonormality =   3.156393549308412E-012
   GDM::BFGS:   lowest Hinv e-value    0.182020231879840     
   GDM::BFGS:   highest Hinv e-value    5.01158306641185     
   GDM::      : max scaling in EWCs is          2.78968434766674     
   GDM::      : max rotation in step is       -1.261328299436532E-006
   GDM::        grad.step =  -5.747659255979287E-013
   ------- Leaving GDM -- hopefully with a step in the right direction! --------
 
   16    -566.6215530776      2.16E-07  Gap = 0.00 eV  Normal BFGS step
 
   ------------------- Entering Geometric Direct Minimization ------------------
   GDM::trust : actual energy change is        2.273736754432321E-013
   GDM::trust : predicted energy change was   -8.621488883968932E-013
   GDM::trust : updated trust radius is        0.108900000000000     
   GDM::WARNING energy changes are now smaller than effective accuracy.
   GDM::        calculation will continue, but THRESH should be increased
   GDM::        or SCF_CONVERGENCE decreased.
   GDM::        effective_thresh =   2.500000000000000E-010
   GDM:         diagonal hessian shift is      0.000000000000000E+000
   GDM::PreWSS: input subspace size is                 15
   GDM::PreWSS: working subspace size set to           15
   GDM::PrEWSS: # of linearly dependent vectors =           13
   GDM::PrEWSS: Max dev from orthonormality =   1.014688333356162E-011
   GDM::BFGS:   lowest Hinv e-value    0.182655932606257     
   GDM::BFGS:   highest Hinv e-value    5.29328094136314     
   GDM::      : max scaling in EWCs is          2.78968419546996     
   GDM::      : max rotation in step is       -5.938300674071941E-007
   GDM::        grad.step =  -1.651003017974863E-013
   ------- Leaving GDM -- hopefully with a step in the right direction! --------
 
   17    -566.6215530776      1.15E-07  Gap = 0.00 eV  Normal BFGS step
 
   ------------------- Entering Geometric Direct Minimization ------------------
   GDM::trust : actual energy change is       -4.547473508864641E-013
   GDM::trust : predicted energy change was   -2.476504526962295E-013
   GDM::trust : updated trust radius is        0.330000000000000     
   GDM:         diagonal hessian shift is      0.000000000000000E+000
   GDM::PreWSS: input subspace size is                 16
   GDM::PreWSS: working subspace size set to           16
   GDM::PrEWSS: # of linearly dependent vectors =           14
   GDM::PrEWSS: Max dev from orthonormality =   6.293163906656574E-012
   GDM::BFGS:   lowest Hinv e-value    0.182233306010926     
   GDM::BFGS:   highest Hinv e-value    5.70662343514936     
   GDM::      : max scaling in EWCs is          2.78968415995906     
   GDM::      : max rotation in step is       -3.520651368932396E-007
   GDM::        grad.step =  -5.345101372736293E-014
   ------- Leaving GDM -- hopefully with a step in the right direction! --------
 
   18    -566.6215530776      7.60E-08  Gap = 0.00 eV  Normal BFGS step
 
   ------------------- Entering Geometric Direct Minimization ------------------
   GDM::trust : actual energy change is       -1.250555214937776E-012
   GDM::trust : predicted energy change was   -8.017652059104437E-014
   GDM::trust : updated trust radius is        0.330000000000000     
   GDM:         diagonal hessian shift is      0.000000000000000E+000
   GDM::PreWSS: input subspace size is                 17
   GDM::PreWSS: working subspace size set to           17
   GDM::PrEWSS: # of linearly dependent vectors =           15
   GDM::PrEWSS: Max dev from orthonormality =   3.615504076681653E-011
   GDM::BFGS:   lowest Hinv e-value    0.181911096649768     
   GDM::BFGS:   highest Hinv e-value    6.43757909027900     
   GDM::      : max scaling in EWCs is          2.78968417830061     
   GDM::      : max rotation in step is       -3.636192206303963E-007
   GDM::        grad.step =  -3.702570766915432E-014
   ------- Leaving GDM -- hopefully with a step in the right direction! --------
 
   19    -566.6215530776      5.81E-08  Gap = 0.00 eV  Normal BFGS step
 
   ------------------- Entering Geometric Direct Minimization ------------------
   GDM::trust : actual energy change is        2.273736754432321E-013
   GDM::trust : predicted energy change was   -5.553856150373149E-014
   GDM::trust : updated trust radius is        0.108900000000000     
   GDM::WARNING energy changes are now smaller than effective accuracy.
   GDM::        calculation will continue, but THRESH should be increased
   GDM::        or SCF_CONVERGENCE decreased.
   GDM::        effective_thresh =   2.500000000000000E-010
   GDM:         diagonal hessian shift is      0.000000000000000E+000
   GDM::PreWSS: input subspace size is                 18
   GDM::PreWSS: working subspace size set to           18
   GDM::PrEWSS: # of linearly dependent vectors =           16
   GDM::PrEWSS: Max dev from orthonormality =   1.997253751273576E-011
   GDM::BFGS:   lowest Hinv e-value    0.182343567934781     
   GDM::BFGS:   highest Hinv e-value    6.66590946730777     
   GDM::      : max scaling in EWCs is          2.78968422660930     
   GDM::      : max rotation in step is       -2.358887794401086E-007
   GDM::        grad.step =  -1.029937530469720E-014
   ------- Leaving GDM -- hopefully with a step in the right direction! --------
 
   20    -566.6215530776      3.33E-08  Gap = 0.00 eV  Normal BFGS step
 
   ------------------- Entering Geometric Direct Minimization ------------------
   GDM::trust : actual energy change is        1.023181539494544E-012
   GDM::trust : predicted energy change was   -1.544906295704581E-014
   GDM::trust : updated trust radius is        0.108900000000000     
   GDM::WARNING energy changes are now smaller than effective accuracy.
   GDM::        calculation will continue, but THRESH should be increased
   GDM::        or SCF_CONVERGENCE decreased.
   GDM::        effective_thresh =   2.500000000000000E-010
   GDM:         diagonal hessian shift is      0.000000000000000E+000
   GDM::PreWSS: input subspace size is                 19
   GDM::PreWSS: working subspace size set to           18
   GDM::PrEWSS: # of linearly dependent vectors =           16
   GDM::PrEWSS: Max dev from orthonormality =   4.238467216088893E-013
   GDM::BFGS:   lowest Hinv e-value    0.188239293737723     
   GDM::BFGS:   highest Hinv e-value    6.76616864675020     
   GDM::      : max scaling in EWCs is          2.78968425600785     
   GDM::      : max rotation in step is       -1.535856563534750E-007
   GDM::        grad.step =  -4.007387448256925E-015
   ------- Leaving GDM -- hopefully with a step in the right direction! --------
 
   21    -566.6215530776      1.92E-08  Gap = 0.00 eV  Normal BFGS step
 
   ------------------- Entering Geometric Direct Minimization ------------------
   GDM::trust : actual energy change is        1.136868377216160E-013
   GDM::trust : predicted energy change was   -6.011081172385389E-015
   GDM::trust : updated trust radius is        0.108900000000000     
   GDM::WARNING energy changes are now smaller than effective accuracy.
   GDM::        calculation will continue, but THRESH should be increased
   GDM::        or SCF_CONVERGENCE decreased.
   GDM::        effective_thresh =   2.500000000000000E-010
   GDM:         diagonal hessian shift is      0.000000000000000E+000
   GDM::PreWSS: input subspace size is                 19
   GDM::PreWSS: working subspace size set to           18
   GDM::PrEWSS: # of linearly dependent vectors =           15
   GDM::PrEWSS: Max dev from orthonormality =   1.156980761196635E-012
   GDM::BFGS:   lowest Hinv e-value    0.226610448999582     
   GDM::BFGS:   highest Hinv e-value    6.72518622526400     
   GDM::      : max scaling in EWCs is          2.78968426953055     
   GDM::      : max rotation in step is       -5.504879470965408E-008
   GDM::        grad.step =  -9.794565898944240E-016
   ------- Leaving GDM -- hopefully with a step in the right direction! --------
 
   22    -566.6215530776      1.15E-08  Gap = 0.00 eV  Normal BFGS step
 
   ------------------- Entering Geometric Direct Minimization ------------------
   GDM::trust : actual energy change is       -4.547473508864641E-013
   GDM::trust : predicted energy change was   -1.469184884841636E-015
   GDM::trust : updated trust radius is        0.330000000000000     
   GDM:         diagonal hessian shift is      0.000000000000000E+000
   GDM::PreWSS: input subspace size is                 19
   GDM::PreWSS: working subspace size set to           18
   GDM::PrEWSS: # of linearly dependent vectors =           14
   GDM::PrEWSS: Max dev from orthonormality =   3.086510214078686E-012
   GDM::BFGS:   lowest Hinv e-value    0.290571086156013     
   GDM::BFGS:   highest Hinv e-value    6.72053496549408     
   GDM::      : max scaling in EWCs is          2.78968426923668     
   GDM::      : max rotation in step is       -1.812668679110142E-008
   GDM::        grad.step =  -1.970776420911330E-016
   ------- Leaving GDM -- hopefully with a step in the right direction! --------
 
   23    -566.6215530776      4.56E-09 Convergence criterion met
 ---------------------------------------
 One-Electron    Energy = -1175.9579346210
 Total Coulomb   Energy =   472.1901744991
 Alpha Exchange  Energy =    -4.4493044084
 Beta  Exchange  Energy =    -4.3255358328
 DFT   Exchange  Energy =   -35.0847247656
 DFT Correlation Energy =    -2.1554909247
 Nuclear Repu.   Energy =   183.1612629759
 Nuclear Attr.   Energy = -1695.4028725866
 Kinetic         Energy =   519.4449379656
 <S^2> = 2.0198
 SCF time:  CPU 84.07 s  wall 9.47 s
 SCF   energy in the final basis set = -566.6215530776
 Total energy in the final basis set = -566.6215530776
 
 --------------------------------------------------------------
 
                    Orbital Energies (a.u.)
 --------------------------------------------------------------
 
 Alpha MOs
 -- Occupied --
-88.817 -19.144  -7.896  -5.856  -5.855  -5.855  -2.034  -2.027
 -1.267  -1.239  -1.229  -1.228  -1.228  -1.208  -0.883  -0.645
 -0.355  -0.350  -0.338  -0.292  -0.282  -0.259  -0.185  -0.170
 -0.146
 -- Virtual --
 -0.082  -0.075  -0.061  -0.059  -0.054  -0.049  -0.048  -0.024
 -0.009  -0.007   0.026   0.029   0.037   0.041   0.053   0.069
  0.087   0.094   0.109   0.111   0.131   0.136   0.183   0.190
  0.199   0.202   0.217   0.218   0.234   0.239   0.263   0.267
  0.270   0.275   0.281   0.302   0.312   0.346   0.506   0.558
  0.565   0.590   0.689   0.843   0.843   0.862   0.927   0.949
  1.179   1.266   1.270   1.622   1.802   1.807   1.825   1.848
  1.873   8.037   9.385
 
 Beta MOs
 -- Occupied --
-88.818 -19.145  -7.896  -5.856  -5.856  -5.855  -2.019  -2.012
 -1.253  -1.224  -1.215  -1.208  -1.206  -1.192  -0.883  -0.646
 -0.355  -0.346  -0.339  -0.287  -0.280  -0.258  -0.170
 -- Virtual --
 -0.091  -0.081  -0.068  -0.053  -0.047  -0.046  -0.038  -0.035
 -0.033  -0.018   0.005   0.010   0.028   0.031   0.039   0.045
  0.056   0.072   0.092   0.099   0.111   0.113   0.134   0.155
  0.187   0.199   0.206   0.208   0.225   0.227   0.239   0.246
  0.271   0.274   0.279   0.280   0.287   0.314   0.319   0.355
  0.511   0.557   0.566   0.590   0.690   0.840   0.843   0.860
  0.928   0.949   1.177   1.265   1.271   1.622   1.802   1.806
  1.825   1.847   1.874   8.041   9.387
 --------------------------------------------------------------
 
          Ground-State Mulliken Net Atomic Charges

     Atom                 Charge (a.u.)    Spin (a.u.)
  --------------------------------------------------------
      1 Zr                    0.611936       1.003989
      2 Zr                    0.611866       1.005574
      3 O                    -0.838360       0.038858
      4 S                    -0.385442      -0.048421
  --------------------------------------------------------
  Sum of atomic charges =     0.000000
  Sum of spin   charges =     2.000000

 -----------------------------------------------------------------
                    Cartesian Multipole Moments
 -----------------------------------------------------------------
    Charge (ESU x 10^10)
                 0.0000
    Dipole Moment (Debye)
         X       1.1725      Y       1.3460      Z       1.5285
       Tot       2.3501
    Quadrupole Moments (Debye-Ang)
        XX     -63.5477     XY     -11.1054     YY     -59.6628
        XZ       2.9064     YZ      -3.1539     ZZ     -69.0773
    Octopole Moments (Debye-Ang^2)
       XXX     -19.2683    XXY       7.3896    XYY      -3.1677
       YYY      39.0571    XXZ      -1.7419    XYZ      -0.5958
       YYZ      -3.7026    XZZ      -6.2944    YZZ       8.7444
       ZZZ     -34.7447
    Hexadecapole Moments (Debye-Ang^3)
      XXXX    -482.1506   XXXY      14.3575   XXYY    -183.5144
      XYYY      27.4363   YYYY    -532.1537   XXXZ     -39.3518
      XXYZ       4.0491   XYYZ     -13.6603   YYYZ       7.8954
      XXZZ    -119.9074   XYZZ      12.0530   YYZZ    -130.5381
      XZZZ     -54.4435   YZZZ      16.0349   ZZZZ    -227.5584
 -----------------------------------------------------------------
 Calculating analytic gradient of the SCF energy
 Gradient of SCF Energy
            1           2           3           4
    1  -0.0000561   0.0000073   0.0000020   0.0000469
    2   0.0001515   0.0000267  -0.0001890   0.0000107
    3  -0.0001430   0.0000040   0.0001221   0.0000168
 Max gradient component =       1.890E-04
 RMS gradient           =       9.155E-05
 Gradient time:  CPU 10.73 s  wall 1.75 s
 Geometry Optimization Parameters
   NAtoms,    NIC,     NZ,  NCons,   NDum,   NFix, NCnnct, MaxDiis
        4      19       0       0       0       0       0       0

 Cartesian Hessian Update
 Hessian Updated using BFGS Update


** GEOMETRY OPTIMIZATION IN DELOCALIZED INTERNAL COORDINATES **
   Searching for a Minimum

   Optimization Cycle:  33

                       Coordinates (Angstroms)
     ATOM                X               Y               Z
      1  Zr        1.1802480525   -0.9732403325    0.5804987809
      2  Zr       -0.4931089954    1.0841291432    0.0530902840
      3  O         1.4316652884    0.7783299986   -0.3106893358
      4  S        -1.0799743455   -1.2679388093   -0.3282997292
   Point Group: c1    Number of degrees of freedom:     6


   Energy is   -566.621553078

 Hessian Updated using BFGS Update

  6 Hessian modes will be used to form the next step
  Hessian Eigenvalues:
     0.057092    0.084019    0.111155    0.117146    0.197764    1.179303

 Minimum Search - Taking Simple RFO Step
 Searching for Lamda that Minimizes Along All modes
 Value Taken    Lamda =   0.00000000
 Step Taken.  Stepsize is  0.001384

                             Maximum     Tolerance    Cnvgd?
         Gradient           0.000194      0.000300     YES
         Displacement       0.000975      0.001200     YES
         Energy change     -0.000001      0.000001     YES


                       Distance Matrix (Angstroms)
             Zr(  1)   Zr(  2)   O (  3)
   Zr(  2)  2.703896
   O (  3)  1.981269  1.982575
   S (  4)  2.453847  2.453995  3.239731
 
 Final energy is   -566.621553077564     


 ******************************
 **  OPTIMIZATION CONVERGED  **
 ******************************

                       Coordinates (Angstroms)
     ATOM                X               Y               Z
      1  Zr        1.1802480525   -0.9732403325    0.5804987809
      2  Zr       -0.4931089954    1.0841291432    0.0530902840
      3  O         1.4316652884    0.7783299986   -0.3106893358
      4  S        -1.0799743455   -1.2679388093   -0.3282997292

Z-matrix Print:
$molecule
0 3
Zr
O  1 1.981269
Zr 2 1.982575 1 86.022161
S  1 2.453847 2 93.237115 3 -36.189287 0
$end

 
 --------------------------------------------------------------
 
                    Orbital Energies (a.u.)
 --------------------------------------------------------------
 
 Alpha MOs
 -- Occupied --
-88.817 -19.144  -7.896  -5.856  -5.855  -5.855  -2.034  -2.027
 -1.267  -1.239  -1.229  -1.228  -1.228  -1.208  -0.883  -0.645
 -0.355  -0.350  -0.338  -0.292  -0.282  -0.259  -0.185  -0.170
 -0.146
 -- Virtual --
 -0.082  -0.075  -0.061  -0.059  -0.054  -0.049  -0.048  -0.024
 -0.009  -0.007   0.026   0.029   0.037   0.041   0.053   0.069
  0.087   0.094   0.109   0.111   0.131   0.136   0.183   0.190
  0.199   0.202   0.217   0.218   0.234   0.239   0.263   0.267
  0.270   0.275   0.281   0.302   0.312   0.346   0.506   0.558
  0.565   0.590   0.689   0.843   0.843   0.862   0.927   0.949
  1.179   1.266   1.270   1.622   1.802   1.807   1.825   1.848
  1.873   8.037   9.385
 
 Beta MOs
 -- Occupied --
-88.818 -19.145  -7.896  -5.856  -5.856  -5.855  -2.019  -2.012
 -1.253  -1.224  -1.215  -1.208  -1.206  -1.192  -0.883  -0.646
 -0.355  -0.346  -0.339  -0.287  -0.280  -0.258  -0.170
 -- Virtual --
 -0.091  -0.081  -0.068  -0.053  -0.047  -0.046  -0.038  -0.035
 -0.033  -0.018   0.005   0.010   0.028   0.031   0.039   0.045
  0.056   0.072   0.092   0.099   0.111   0.113   0.134   0.155
  0.187   0.199   0.206   0.208   0.225   0.227   0.239   0.246
  0.271   0.274   0.279   0.280   0.287   0.314   0.319   0.355
  0.511   0.557   0.566   0.590   0.690   0.840   0.843   0.860
  0.928   0.949   1.177   1.265   1.271   1.622   1.802   1.806
  1.825   1.847   1.874   8.041   9.387
 --------------------------------------------------------------
 
          Ground-State Mulliken Net Atomic Charges

     Atom                 Charge (a.u.)    Spin (a.u.)
  --------------------------------------------------------
      1 Zr                    0.611936       1.003989
      2 Zr                    0.611866       1.005574
      3 O                    -0.838360       0.038858
      4 S                    -0.385442      -0.048421
  --------------------------------------------------------
  Sum of atomic charges =     0.000000
  Sum of spin   charges =     2.000000

 -----------------------------------------------------------------
                    Cartesian Multipole Moments
 -----------------------------------------------------------------
    Charge (ESU x 10^10)
                 0.0000
    Dipole Moment (Debye)
         X       1.1725      Y       1.3460      Z       1.5285
       Tot       2.3501
    Quadrupole Moments (Debye-Ang)
        XX     -63.5477     XY     -11.1054     YY     -59.6628
        XZ       2.9064     YZ      -3.1539     ZZ     -69.0773
    Octopole Moments (Debye-Ang^2)
       XXX     -19.2683    XXY       7.3896    XYY      -3.1677
       YYY      39.0571    XXZ      -1.7419    XYZ      -0.5958
       YYZ      -3.7026    XZZ      -6.2944    YZZ       8.7444
       ZZZ     -34.7447
    Hexadecapole Moments (Debye-Ang^3)
      XXXX    -482.1506   XXXY      14.3575   XXYY    -183.5144
      XYYY      27.4363   YYYY    -532.1537   XXXZ     -39.3518
      XXYZ       4.0491   XYYZ     -13.6603   YYYZ       7.8954
      XXZZ    -119.9074   XYZZ      12.0530   YYZZ    -130.5381
      XZZZ     -54.4435   YZZZ      16.0349   ZZZZ    -227.5584
 -----------------------------------------------------------------
Archival summary:
1\1\hpc3916\OPT\ProcedureUnspecified\BasisUnspecified\r211(+,3)\liqiuy\FriJan1719:42:432020FriJan1719:42:432020\0\\#,OPT,ProcedureUnspecified,BasisUnspecified,\\56,3\Zr\O,1,1.98127\Zr,2,1.98258,1,86.0222\S,1,2.45385,2,93.2371,3,-36.1893,0\\\@

 Total job time:  541.77s(wall), 3912.29s(cpu) 
 Fri Jan 17 19:42:43 2020

        *************************************************************
        *                                                           *
        *  Thank you very much for using Q-Chem.  Have a nice day.  *
        *                                                           *
        *************************************************************


0 sent ACK to 0 
now end server 0 ... 
cleanup process ... done
