
Running Job 1 of 2 ZrOx.in
qchem ZrOx.in_12623.0 /tmp/5732661.priya/ZrOx.save/ 1
/usr/usc/qchem/4.4/bin/mpi/mpirun_qchem -machinefile /usr/usc/qchem/4.4/bin/mpi/machines -np 1 /usr/usc/qchem/4.4/exe/qcprog.exe ZrOx.in_12623.0 /tmp/5732661.priya/ZrOx.save/

Process 0 of 1 is on hpc3913.hpcc.usc.edu - thread support 0
initial socket setup ...start
initial socket setup ...done 
now start server 0 ... 
Check license passed

                  Welcome to Q-Chem
     A Quantum Leap Into The Future Of Chemistry


 Q-Chem 4.4, Q-Chem, Inc., Pleasanton, CA (2016)

 Y. Shao,  Z. Gan,  E. Epifanovsky,  A. T. B. Gilbert,  M. Wormit,  
 J. Kussmann,  A. W. Lange,  A. Behn,  J. Deng,  X. Feng,  D. Ghosh,  
 M. Goldey,  P. R. Horn,  L. D. Jacobson,  I. Kaliman,  F.Rob,  
 R. Z. Khaliullin,  T. Kus,  A. Landau,  J. Liu,  E. I. Proynov,  Y. M. Rhee,  
 R. M. Richard,  M. A. Rohrdanz,  R. P. Steele,  E. J. Sundstrom,  
 H. L. Woodcock III,  P. M. Zimmerman,  D. Zuev,  B. Albrecht,  E. Alguire,  
 B. Austin,  S. A. Baeppler,  G. J. O. Beran,  Y. A. Bernard,  E. Berquist,  
 K. Brandhorst,  K. B. Bravaya,  S. T. Brown,  D. Casanova,  C.-M. Chang,  
 Y. Chen,  S. H. Chien,  K. D. Closser,  M. P. Coons,  D. L. Crittenden,  
 S. Dasgupta,  M. Diedenhofen,  R. A. DiStasio Jr.,  H. Do,  A. D. Dutoi,  
 R. G. Edgar,  P.-T. Fang,  S. Fatehi,  Q. Feng,  L. Fusti-Molnar,  
 A. Ghysels,  A. Golubeva-Zadorozhnaya,  J. Gomes,  A. Gunina,  
 M. W. D. Hanson-Heine,  P. H. P. Harbach,  A. W. Hauser,  E. G. Hohenstein,  
 Z. C. Holden,  K. Hui,  T.-C. Jagau,  H. Ji,  B. Kaduk,  K. Khistyaev,  
 Jaehoon Kim,  Jihan Kim,  R. A. King,  P. Klunzinger,  D. Kosenkov,  
 T. Kowalczyk,  C. M. Krauter,  A. Kunitsa,  K. U. Lao,  A. Laurent,  
 K. V. Lawler,  D. Lefrancois,  S. Lehtola,  S. V. Levchenko,  C. Y. Lin,  
 Y.-S. Lin,  F. Liu,  E. Livshits,  R. C. Lochan,  A. Luenser,  P. Manohar,  
 S. F. Manzer,  S.-P. Mao,  Y. Mao,  N. Mardirossian,  A. V. Marenich,  
 L. A. Martinez-Martinez,  S. A. Maurer,  N. J. Mayhall,  J.-M. Mewes,  
 A. F. Morrison,  K. Nanda,  C. M. Oana,  R. Olivares-Amaya,  D. P. O'Neill,  
 J. A. Parkhill,  T. M. Perrine,  R. Peverati,  P. A. Pieniazek,  F. Plasser,  
 A. Prociuk,  D. R. Rehn,  E. Rosta,  N. J. Russ,  N. Sergueev,  
 S. M. Sharada,  S. Sharma,  D. W. Small,  A. Sodt,  T. Stauch,  T. Stein,  
 D. Stuck,  Y.-C. Su,  A. J. W. Thom,  T. Tsuchimochi,  L. Vogt,  O. Vydrov,  
 T. Wang,  M. A. Watson,  J. Wenzel,  A. White,  C. F. Williams,  
 V. Vanovschi,  S. Yeganeh,  S. R. Yost,  Z.-Q. You,  I. Y. Zhang,  X. Zhang,  
 Y. Zhao,  B. R. Brooks,  G. K. L. Chan,  D. M. Chipman,  C. J. Cramer,  
 W. A. Goddard III,  M. S. Gordon,  W. J. Hehre,  A. Klamt,  
 H. F. Schaefer III,  M. W. Schmidt,  C. D. Sherrill,  D. G. Truhlar,  
 A. Warshel,  X. Xu,  A. Aspuru-Guzik,  R. Baer,  A. T. Bell,  N. A. Besley,  
 J.-D. Chai,  A. Dreuw,  B. D. Dunietz,  T. R. Furlani,  S. R. Gwaltney,  
 C.-P. Hsu,  Y. Jung,  J. Kong,  D. S. Lambrecht,  W. Liang,  C. Ochsenfeld,  
 V. A. Rassolov,  L. V. Slipchenko,  J. E. Subotnik,  T. Van Voorhis,  
 J. M. Herbert,  A. I. Krylov,  P. M. W. Gill,  M. Head-Gordon

 Contributors to earlier versions of Q-Chem not listed above: 
 R. D. Adamson,  J. Baker,  E. F. C. Byrd,  A. K. Chakraborty,  C.-L. Cheng,  
 H. Dachsel,  R. J. Doerksen,  G. Hawkins,  A. Heyden,  S. Hirata,  
 G. Kedziora,  F. J. Keil,  C. Kelley,  P. P. Korambath,  W. Kurlancheek,  
 A. M. Lee,  M. S. Lee,  D. Liotard,  I. Lotan,  P. E. Maslen,  N. Nair,  
 D. Neuhauser,  R. Olson,  B. Peters,  J. Ritchie,  N. E. Schultz,  
 N. Shenvi,  A. C. Simmonett,  K. S. Thanthiriwatte,  Q. Wu,  W. Zhang

 Please cite Q-Chem as follows:
 Y. Shao et al., Mol. Phys. 113, 184-215 (2015)
 DOI: 10.1080/00268976.2014.952696

 Q-Chem 4.4.1 for Intel X86 Linux

 Parts of Q-Chem use Armadillo 5.200.1 (Boston Tea Smuggler).
 http://arma.sourceforge.net/

 Q-Chem begins on Fri Jan 17 19:34:01 2020  

Host: 
0

     Scratch files written to /tmp/5732661.priya/ZrOx.save//
 Jul2716 11668_ 21447  21445 5558   
 Parallel job on  1  processors
Processing $rem in /usr/usc/qchem/4.4/config/preferences.
 MEM_TOTAL  2000 

Checking the input file for inconsistencies... 	...done.

--------------------------------------------------------------
User input:
--------------------------------------------------------------
$comment
--------------------------------------------------------
A SINGLE POINT DFT CALCULATION WITH BASIS SET PROJECTION
--------------------------------------------------------
$end

$molecule
0 1
Zr 0.47346 0.00066 0.00000
Zr -1.49875 -0.00035 0.00000
S 2.68600 -0.00082 0.00000
$end

$rem
JOBTYPE   SP
METHOD   B3LYP
BASIS   GEN
ECP   GEN
MAX_SCF_CYCLES   200
SCF_CONVERGENCE 8
SCF_PRINT 1
PDB_PRINT 2
THRESH 14
VARTHRESH 14
INCDFT FALSE
SYMMETRY False
Sym_ignore True
SCF_ALGORITHM GDM
XC_GRID 000128000302
DFT_D           EMPIRICAL_GRIMME3
DFT_D3_S6       1000
DFT_D3_RS6     1261
DFT_D3_S8      1703
DFT_D3_3BODY    FALSE
$end

$basis
O
6-31+G**
****
S
6-31+G**
****
Zr
LanL2DZ
****
$end

$ecp
Zr
LanL2DZ
****
$end

--------------------------------------------------------------
 ----------------------------------------------------------------
             Standard Nuclear Orientation (Angstroms)
    I     Atom           X                Y                Z
 ----------------------------------------------------------------
    1      Zr      0.4734600000     0.0006600000     0.0000000000
    2      Zr     -1.4987500000    -0.0003500000     0.0000000000
    3      S       2.6860000000    -0.0008200000     0.0000000000
 ----------------------------------------------------------------
 Nuclear Repulsion Energy =   108.8363337110 hartrees
 There are       20 alpha and       20 beta electrons

 Q-Chem warning in module /home/scratch/svnadmin/11668_zgan/qchem/forms1/BasisType.C, line 1419:

 Setting pure/cartesian flag to 2111 for general basis


 Requested basis set is non-standard
 There are 22 shells and 66 basis functions

 Total QAlloc Memory Limit   2000 MB
 Mega-Array Size        61 MB
 MEM_STATIC part        62 MB

                       Distance Matrix (Angstroms)
             Zr(  1)   Zr(  2)
   Zr(  2)  1.972210
   S (  3)  2.212540  4.184750
 
 A cutoff of  1.0D-14 yielded    253 shell pairs
 There are      2303 function pairs (      2673 Cartesian)
 
 -------------------------------------------------------
 OpenMP Integral Computing Module                       
 Release: version 1.0, May 2013, Q-Chem Inc. Pittsburgh 
 -------------------------------------------------------
 Integral Job Info:
 Integral job number is                      11
 Integral operator is                         1
 short-range coefficients                     0
 long-range coefficients              100000000
 Omega coefficients                           0
 if combine SR and LR in K                    0
 Integral screening is                        0
 Integral computing path is                   2
 max size of driver memory is            800000
 size of driver memory is                593474
 size of scratch memory is             15166112
 max col of scratch BK array               1296
 max len of scratch array in speh3          155
 max len of scratch index in speh4           18
 max int batch size is                      520
 min int batch size is                       52
 fixed nKL is                                52
 max L of basis functions is                  2
 order of int derivative is                   0
 number of shells is                         22
 number of basis is                          71
 number of cartesian basis is                71
 number of contracted shell pairs           253
 number of primitive shell pairs           1412
 maxK2 (contraction) of shell pair           36
 max number of K2 of shell pair               1
 max number of CS2 of shell pair             10
 max number of PS2 of shell pair             84
 mem total for path MDJ                   21952
 -------------------------------------------------------
 Requested basis set is non-standard
 Compound shells will be simplified
 There are 26 shells and 66 basis functions
 A cutoff of  1.0D-14 yielded    351 shell pairs
 There are      2291 function pairs (      2661 Cartesian)
 Smallest overlap matrix eigenvalue = 7.88E-04

 Scale SEOQF with 1.000000e-01/1.000000e-01/1.000000e-01

 Standard Electronic Orientation quadrupole field applied
 Nucleus-field energy     =     0.0000000052 hartrees
 Guess MOs from core Hamiltonian diagonalization
 A restricted hybrid HF-DFT SCF calculation will be
 performed using Geometric Direct Minimization
 Exchange:     0.2000 Hartree-Fock + 0.0800 Slater + 0.7200 B88
 Correlation:  0.1900 VWN1RPA + 0.8100 LYP
 Using Euler-Maclaurin-Lebedev (128,302) quadrature formula
 Dispersion:   Grimme D3
 SCF converges when RMS gradient is below 1.0E-08
 Maximum number of minimization steps = 200
 using 12 threads for integral computing 
 -------------------------------------------------------
 OpenMP BLAS3 based DFT computing Module                
 Release: version 1.0, May 2013, Q-Chem Inc. Pittsburgh 
 -------------------------------------------------------
 
   ------------------- Entering Geometric Direct Minimization ------------------
   GDM:         diagonal hessian shift is      0.000000000000000E+000
   GDM::PreWSS: input subspace size is                  1
   GDM::PreWSS: working subspace size set to            1
   GDM::PrEWSS: # of linearly dependent vectors =            0
   GDM::PrEWSS: Max dev from orthonormality =   0.000000000000000E+000
   GDM::BFGS:   lowest Hinv e-value     1.00000000000000     
   GDM::BFGS:   highest Hinv e-value    1.00000000000000     
   GDM::      : max scaling in EWCs is          1.41421356237309     
   GDM::      : max rotation in step is        8.504720211222513E-002
   GDM::        grad.step =   -1.01575534859893     
   ------- Leaving GDM -- hopefully with a step in the right direction! --------
 
 ---------------------------------------
  Cycle       Energy        RMS Gradient
 ---------------------------------------
    1    -422.5201399036      8.58E-01  Gap = -27.21 eV  Descent step
 
   ------------------- Entering Geometric Direct Minimization ------------------
   GDM::trust : actual energy change is        -2.00603083416195     
   GDM::trust : predicted energy change was   -0.163350000000000     
   GDM::trust : updated trust radius is        0.330000000000000     
   GDM::search:  On step            1 .  The current bracket is:
       left   : x =  0.0000E+00, e =      -422.5201399036, g = -0.4466E+01
       current: x =  0.2275E+00, e =      -424.5261707378, g = -0.4305E+01
       right  : x =  0.1000E+04, e =      1000.0000000000, g =  0.1000E+04
       next   : x =  0.2275E+01
   GDM::      : max rotation in step is        0.850472021122252     
   ------- Leaving GDM -- hopefully with a step in the right direction! --------
 
    2    -424.5261707378      9.15E-01  Gap = -216.26 eV  Line search: understep
 
   ------------------- Entering Geometric Direct Minimization ------------------
   GDM::trust : actual energy change is        -5.07418926399964     
   GDM::trust : predicted energy change was   -0.163350000000000     
   GDM::trust : updated trust radius is        0.330000000000000     
   GDM:         diagonal hessian shift is      0.000000000000000E+000
   GDM::PreWSS: input subspace size is                  2
   GDM::PreWSS: working subspace size set to            2
   GDM::PrEWSS: # of linearly dependent vectors =            0
   GDM::PrEWSS: Max dev from orthonormality =   7.771561172376096E-016
   GDM::BFGS:   lowest Hinv e-value    0.322675124017106     
   GDM::BFGS:   highest Hinv e-value    2.18374685240542     
   GDM::      : max scaling in EWCs is          1.41421356237309     
   GDM::      : max rotation in step is       -0.190230239469140     
   GDM::        grad.step =   -1.66316596311045     
   ------- Leaving GDM -- hopefully with a step in the right direction! --------
 
    3    -427.5943291676      2.05E+00  Gap = -216.26 eV  Descent step
 
   ------------------- Entering Geometric Direct Minimization ------------------
   GDM::trust : actual energy change is        -3.25000632444551     
   GDM::trust : predicted energy change was   -0.219442570825955     
   GDM::trust : updated trust radius is        0.330000000000000     
   GDM:         diagonal hessian shift is      0.000000000000000E+000
   GDM::PreWSS: input subspace size is                  3
   GDM::PreWSS: working subspace size set to            3
   GDM::PrEWSS: # of linearly dependent vectors =            0
   GDM::PrEWSS: Max dev from orthonormality =   9.880984919163893E-015
   GDM::BFGS:   lowest Hinv e-value    0.363002124266775     
   GDM::BFGS:   highest Hinv e-value    5.73833825213045     
   GDM::      : max scaling in EWCs is          1.41421356237309     
   GDM::      : max rotation in step is       -9.375577152829330E-002
   GDM::        grad.step =   -1.50746924525847     
   ------- Leaving GDM -- hopefully with a step in the right direction! --------
 
    4    -430.8443354920      1.35E+00  Gap = -216.26 eV  Descent step
 
   ------------------- Entering Geometric Direct Minimization ------------------
   GDM::trust : actual energy change is        -2.99978861827225     
   GDM::trust : predicted energy change was   -0.127212926695908     
   GDM::trust : updated trust radius is        0.330000000000000     
   GDM::search:  On step            1 .  The current bracket is:
       left   : x =  0.0000E+00, e =      -430.8443354920, g = -0.7362E+01
       current: x =  0.2048E+00, e =      -433.8441241103, g = -0.7261E+01
       right  : x =  0.1000E+04, e =      1000.0000000000, g =  0.1000E+04
       next   : x =  0.2048E+01
   GDM::      : max rotation in step is       -0.937557715282933     
   ------- Leaving GDM -- hopefully with a step in the right direction! --------
 
    5    -433.8441241103      1.55E+00  Gap = -216.26 eV  Line search: understep
 
   ------------------- Entering Geometric Direct Minimization ------------------
   GDM::trust : actual energy change is        -21.5075991320296     
   GDM::trust : predicted energy change was   -0.127212926695908     
   GDM::trust : updated trust radius is        0.330000000000000     
   GDM:         diagonal hessian shift is      0.000000000000000E+000
   GDM::PreWSS: input subspace size is                  4
   GDM::PreWSS: working subspace size set to            4
   GDM::PrEWSS: # of linearly dependent vectors =            0
   GDM::PrEWSS: Max dev from orthonormality =   2.345693084215839E-014
   GDM::BFGS:   lowest Hinv e-value    0.325343655776143     
   GDM::BFGS:   highest Hinv e-value    3.02640645077624     
   GDM::      : max scaling in EWCs is          1.41421356237309     
   GDM::      : max rotation in step is       -0.178293792559102     
   GDM::        grad.step =   -1.90530369862178     
   ------- Leaving GDM -- hopefully with a step in the right direction! --------
 
    6    -452.3519346241      2.21E+00  Gap = -216.26 eV  Descent step
 
   ------------------- Entering Geometric Direct Minimization ------------------
   GDM::trust : actual energy change is        -3.63099422373665     
   GDM::trust : predicted energy change was   -0.207735328558401     
   GDM::trust : updated trust radius is        0.330000000000000     
   GDM:         diagonal hessian shift is      0.000000000000000E+000
   GDM::PreWSS: input subspace size is                  5
   GDM::PreWSS: working subspace size set to            5
   GDM::PrEWSS: # of linearly dependent vectors =            0
   GDM::PrEWSS: Max dev from orthonormality =   2.241401508840113E-013
   GDM::BFGS:   lowest Hinv e-value    0.446485853464028     
   GDM::BFGS:   highest Hinv e-value    3.47265640619029     
   GDM::      : max scaling in EWCs is          1.41421356237309     
   GDM::      : max rotation in step is       -0.186558318387282     
   GDM::        grad.step =   -1.65589958236305     
   ------- Leaving GDM -- hopefully with a step in the right direction! --------
 
    7    -455.9829288478      2.01E+00  Gap = -216.26 eV  Descent step
 
   ------------------- Entering Geometric Direct Minimization ------------------
   GDM::trust : actual energy change is        -3.04905503226223     
   GDM::trust : predicted energy change was   -0.190245161282863     
   GDM::trust : updated trust radius is        0.330000000000000     
   GDM:         diagonal hessian shift is      0.000000000000000E+000
   GDM::PreWSS: input subspace size is                  6
   GDM::PreWSS: working subspace size set to            6
   GDM::PrEWSS: # of linearly dependent vectors =            0
   GDM::PrEWSS: Max dev from orthonormality =   2.561631462505432E-013
   GDM::BFGS:   lowest Hinv e-value    0.444065799563065     
   GDM::BFGS:   highest Hinv e-value    3.19334163424689     
   GDM::      : max scaling in EWCs is          1.41421356237309     
   GDM::      : max rotation in step is       -0.122437821781462     
   GDM::        grad.step =   -1.16733816757385     
   ------- Leaving GDM -- hopefully with a step in the right direction! --------
 
    8    -459.0319838801      1.33E+00  Gap = -216.26 eV  Descent step
 
   ------------------- Entering Geometric Direct Minimization ------------------
   GDM::trust : actual energy change is        -2.20378183664445     
   GDM::trust : predicted energy change was   -0.169231620273294     
   GDM::trust : updated trust radius is        0.330000000000000     
   GDM:         diagonal hessian shift is      0.000000000000000E+000
   GDM::PreWSS: input subspace size is                  7
   GDM::PreWSS: working subspace size set to            7
   GDM::PrEWSS: # of linearly dependent vectors =            0
   GDM::PrEWSS: Max dev from orthonormality =   2.125313813827745E-012
   GDM::BFGS:   lowest Hinv e-value    0.339977990627175     
   GDM::BFGS:   highest Hinv e-value    3.24439992758125     
   GDM::      : max scaling in EWCs is          1.41421356237309     
   GDM::      : max rotation in step is       -0.100133466887498     
   GDM::        grad.step =   -1.00196393446845     
   ------- Leaving GDM -- hopefully with a step in the right direction! --------
 
    9    -461.2357657167      1.10E+00  Gap = -216.26 eV  Descent step
 
   ------------------- Entering Geometric Direct Minimization ------------------
   GDM::trust : actual energy change is        -1.92795813514050     
   GDM::trust : predicted energy change was   -0.145362014335210     
   GDM::trust : updated trust radius is        0.330000000000000     
   GDM:         diagonal hessian shift is      0.000000000000000E+000
   GDM::PreWSS: input subspace size is                  8
   GDM::PreWSS: working subspace size set to            8
   GDM::PrEWSS: # of linearly dependent vectors =            0
   GDM::PrEWSS: Max dev from orthonormality =   2.182740099776481E-012
   GDM::BFGS:   lowest Hinv e-value    0.269556395627441     
   GDM::BFGS:   highest Hinv e-value    3.35919124204488     
   GDM::      : max scaling in EWCs is          1.41421356237309     
   GDM::      : max rotation in step is       -9.168723994489945E-002
   GDM::        grad.step =  -0.948271278094847     
   ------- Leaving GDM -- hopefully with a step in the right direction! --------
 
   10    -463.1637238519      9.17E-01  Gap = -216.26 eV  Descent step
 
   ------------------- Entering Geometric Direct Minimization ------------------
   GDM::trust : actual energy change is        -1.83505077447722     
   GDM::trust : predicted energy change was   -0.132948700800578     
   GDM::trust : updated trust radius is        0.330000000000000     
   GDM::search:  On step            1 .  The current bracket is:
       left   : x =  0.0000E+00, e =      -463.1637238519, g = -0.4014E+01
       current: x =  0.2362E+00, e =      -464.9987746263, g = -0.3721E+01
       right  : x =  0.1000E+04, e =      1000.0000000000, g =  0.1000E+04
       next   : x =  0.2362E+01
   GDM::      : max rotation in step is       -0.916872399448995     
   ------- Leaving GDM -- hopefully with a step in the right direction! --------
 
   11    -464.9987746263      6.59E-01  Gap = -216.26 eV  Line search: understep
 
   ------------------- Entering Geometric Direct Minimization ------------------
   GDM::trust : actual energy change is        -4.73472239975200     
   GDM::trust : predicted energy change was   -0.132948700800578     
   GDM::trust : updated trust radius is        0.330000000000000     
   GDM:         diagonal hessian shift is      0.000000000000000E+000
   GDM::PreWSS: input subspace size is                  9
   GDM::PreWSS: working subspace size set to            9
   GDM::PrEWSS: # of linearly dependent vectors =            0
   GDM::PrEWSS: Max dev from orthonormality =   5.756048415683779E-012
   GDM::BFGS:   lowest Hinv e-value    0.165663421478920     
   GDM::BFGS:   highest Hinv e-value    2.96426510114247     
   GDM::      : max scaling in EWCs is          1.41421356237309     
   GDM::      : max rotation in step is        0.171618285103272     
   GDM::        grad.step =   -1.76576469087672     
   ------- Leaving GDM -- hopefully with a step in the right direction! --------
 
   12    -467.8984462516      1.97E+00  Gap = -216.26 eV  Descent step
 
   ------------------- Entering Geometric Direct Minimization ------------------
   GDM::trust : actual energy change is        -3.32589423521529     
   GDM::trust : predicted energy change was   -0.261742740341174     
   GDM::trust : updated trust radius is        0.330000000000000     
   GDM:         diagonal hessian shift is      0.000000000000000E+000
   GDM::PreWSS: input subspace size is                 10
   GDM::PreWSS: working subspace size set to           10
   GDM::PrEWSS: # of linearly dependent vectors =            0
   GDM::PrEWSS: Max dev from orthonormality =   5.040655393084847E-012
   GDM::BFGS:   lowest Hinv e-value    0.174810381028674     
   GDM::BFGS:   highest Hinv e-value    3.48554996009301     
   GDM::      : max scaling in EWCs is          1.41421356237309     
   GDM::      : max rotation in step is        0.195952319575105     
   GDM::        grad.step =   -1.70739421843514     
   ------- Leaving GDM -- hopefully with a step in the right direction! --------
 
   13    -471.2243404868      2.17E+00  Gap = -216.26 eV  Descent step
 
   ------------------- Entering Geometric Direct Minimization ------------------
   GDM::trust : actual energy change is        -3.26332957925644     
   GDM::trust : predicted energy change was   -0.180070641456473     
   GDM::trust : updated trust radius is        0.330000000000000     
   GDM:         diagonal hessian shift is      0.000000000000000E+000
   GDM::PreWSS: input subspace size is                 11
   GDM::PreWSS: working subspace size set to           11
   GDM::PrEWSS: # of linearly dependent vectors =            0
   GDM::PrEWSS: Max dev from orthonormality =   2.374579699537804E-012
   GDM::BFGS:   lowest Hinv e-value    0.139704991662263     
   GDM::BFGS:   highest Hinv e-value    3.53992063624014     
   GDM::      : max scaling in EWCs is          1.41421356237309     
   GDM::      : max rotation in step is       -0.166194926656766     
   GDM::        grad.step =   -1.54291184028118     
   ------- Leaving GDM -- hopefully with a step in the right direction! --------
 
   14    -474.4876700661      1.67E+00  Gap = -216.26 eV  Descent step
 
   ------------------- Entering Geometric Direct Minimization ------------------
   GDM::trust : actual energy change is        -2.93676038969903     
   GDM::trust : predicted energy change was   -0.159318226653468     
   GDM::trust : updated trust radius is        0.330000000000000     
   GDM:         diagonal hessian shift is      0.000000000000000E+000
   GDM::PreWSS: input subspace size is                 12
   GDM::PreWSS: working subspace size set to           12
   GDM::PrEWSS: # of linearly dependent vectors =            0
   GDM::PrEWSS: Max dev from orthonormality =   4.239549683537902E-012
   GDM::BFGS:   lowest Hinv e-value    0.186303457882056     
   GDM::BFGS:   highest Hinv e-value    3.35459555017531     
   GDM::      : max scaling in EWCs is          1.41421356237309     
   GDM::      : max rotation in step is        0.137753625371713     
   GDM::        grad.step =   -1.18489253886431     
   ------- Leaving GDM -- hopefully with a step in the right direction! --------
 
   15    -477.4244304558      1.16E+00  Gap = -216.26 eV  Descent step
 
   ------------------- Entering Geometric Direct Minimization ------------------
   GDM::trust : actual energy change is        -2.26409163959130     
   GDM::trust : predicted energy change was   -0.152478187507532     
   GDM::trust : updated trust radius is        0.330000000000000     
   GDM:         diagonal hessian shift is      0.000000000000000E+000
   GDM::PreWSS: input subspace size is                 13
   GDM::PreWSS: working subspace size set to           13
   GDM::PrEWSS: # of linearly dependent vectors =            0
   GDM::PrEWSS: Max dev from orthonormality =   8.966910547414386E-012
   GDM::BFGS:   lowest Hinv e-value    0.233196787132017     
   GDM::BFGS:   highest Hinv e-value    3.36624249399740     
   GDM::      : max scaling in EWCs is          1.41421356237309     
   GDM::      : max rotation in step is        0.149338256408690     
   GDM::        grad.step =   -1.07089183701144     
   ------- Leaving GDM -- hopefully with a step in the right direction! --------
 
   16    -479.6885220954      1.27E+00  Gap = -216.26 eV  Descent step
 
   ------------------- Entering Geometric Direct Minimization ------------------
   GDM::trust : actual energy change is        -2.06457585576129     
   GDM::trust : predicted energy change was   -0.145087912203744     
   GDM::trust : updated trust radius is        0.330000000000000     
   GDM:         diagonal hessian shift is      0.000000000000000E+000
   GDM::PreWSS: input subspace size is                 14
   GDM::PreWSS: working subspace size set to           14
   GDM::PrEWSS: # of linearly dependent vectors =            0
   GDM::PrEWSS: Max dev from orthonormality =   1.103685198788895E-011
   GDM::BFGS:   lowest Hinv e-value    0.220908623128357     
   GDM::BFGS:   highest Hinv e-value    3.46762733090528     
   GDM::      : max scaling in EWCs is          1.41421356237309     
   GDM::      : max rotation in step is        0.229981878220438     
   GDM::        grad.step =   -1.15340875543303     
   ------- Leaving GDM -- hopefully with a step in the right direction! --------
 
   17    -481.7530979511      1.72E+00  Gap = -216.26 eV  Descent step
 
   ------------------- Entering Geometric Direct Minimization ------------------
   GDM::trust : actual energy change is        -2.14461162586588     
   GDM::trust : predicted energy change was   -0.146275809499249     
   GDM::trust : updated trust radius is        0.330000000000000     
   GDM:         diagonal hessian shift is      0.000000000000000E+000
   GDM::PreWSS: input subspace size is                 15
   GDM::PreWSS: working subspace size set to           15
   GDM::PrEWSS: # of linearly dependent vectors =            0
   GDM::PrEWSS: Max dev from orthonormality =   1.009651390271316E-011
   GDM::BFGS:   lowest Hinv e-value    0.127271842463037     
   GDM::BFGS:   highest Hinv e-value    5.14139168818107     
   GDM::      : max scaling in EWCs is          2.82842712474619     
   GDM::      : max rotation in step is       -0.416153516962841     
   GDM::        grad.step =   -1.30309727051340     
   ------- Leaving GDM -- hopefully with a step in the right direction! --------
 
   18    -483.8977095770      2.23E+00  Gap = -216.26 eV  Descent step
 
   ------------------- Entering Geometric Direct Minimization ------------------
   GDM::trust : actual energy change is        -1.96884357246194     
   GDM::trust : predicted energy change was   -0.248744987489986     
   GDM::trust : updated trust radius is        0.330000000000000     
   GDM:         diagonal hessian shift is      0.000000000000000E+000
   GDM::PreWSS: input subspace size is                 16
   GDM::PreWSS: working subspace size set to           16
   GDM::PrEWSS: # of linearly dependent vectors =            0
   GDM::PrEWSS: Max dev from orthonormality =   2.789903030819829E-011
   GDM::BFGS:   lowest Hinv e-value    8.026080982640389E-002
   GDM::BFGS:   highest Hinv e-value    6.92765369863353     
   GDM::      : max scaling in EWCs is          2.82842712474619     
   GDM::      : max rotation in step is        0.347217699781225     
   GDM::        grad.step =   -1.10069117052135     
   ------- Leaving GDM -- hopefully with a step in the right direction! --------
 
   19    -485.8665531495      1.24E+00  Gap = -216.26 eV  Descent step
 
   ------------------- Entering Geometric Direct Minimization ------------------
   GDM::trust : actual energy change is        -1.68579809892100     
   GDM::trust : predicted energy change was   -0.333197445570061     
   GDM::trust : updated trust radius is        0.330000000000000     
   GDM:         diagonal hessian shift is      0.000000000000000E+000
   GDM::PreWSS: input subspace size is                 17
   GDM::PreWSS: working subspace size set to           17
   GDM::PrEWSS: # of linearly dependent vectors =            0
   GDM::PrEWSS: Max dev from orthonormality =   9.697947306319676E-012
   GDM::BFGS:   lowest Hinv e-value    0.147684352651116     
   GDM::BFGS:   highest Hinv e-value    4.08451458703001     
   GDM::      : max scaling in EWCs is          2.82842712474619     
   GDM::      : max rotation in step is        0.370619679068728     
   GDM::        grad.step =  -0.795541116453144     
   ------- Leaving GDM -- hopefully with a step in the right direction! --------
 
   20    -487.5523512484      9.57E-01  Gap = -216.26 eV  Descent step
 
   ------------------- Entering Geometric Direct Minimization ------------------
   GDM::trust : actual energy change is        -1.10889848251605     
   GDM::trust : predicted energy change was   -0.192934645598066     
   GDM::trust : updated trust radius is        0.330000000000000     
   GDM:         diagonal hessian shift is      0.000000000000000E+000
   GDM::PreWSS: input subspace size is                 18
   GDM::PreWSS: working subspace size set to           18
   GDM::PrEWSS: # of linearly dependent vectors =            0
   GDM::PrEWSS: Max dev from orthonormality =   6.230557736408571E-012
   GDM::BFGS:   lowest Hinv e-value    0.187084923575422     
   GDM::BFGS:   highest Hinv e-value    3.78607198389160     
   GDM::      : max scaling in EWCs is          2.82842712474619     
   GDM::      : max rotation in step is       -0.161232229976123     
   GDM::        grad.step =  -0.419652171467916     
   ------- Leaving GDM -- hopefully with a step in the right direction! --------
 
   21    -488.6612497309      3.93E-01  Gap = -216.26 eV  Descent step
 
   ------------------- Entering Geometric Direct Minimization ------------------
   GDM::trust : actual energy change is       -0.730513487602821     
   GDM::trust : predicted energy change was   -0.157091863515881     
   GDM::trust : updated trust radius is        0.330000000000000     
   GDM:         diagonal hessian shift is      0.000000000000000E+000
   GDM::PreWSS: input subspace size is                 19
   GDM::PreWSS: working subspace size set to           18
   GDM::PrEWSS: # of linearly dependent vectors =            0
   GDM::PrEWSS: Max dev from orthonormality =   3.305408724507686E-011
   GDM::BFGS:   lowest Hinv e-value    0.198771771163008     
   GDM::BFGS:   highest Hinv e-value    2.70864954758654     
   GDM::      : max scaling in EWCs is          2.82842712474619     
   GDM::      : max rotation in step is       -0.186138908422406     
   GDM::        grad.step =  -0.297189555424868     
   ------- Leaving GDM -- hopefully with a step in the right direction! --------
 
   22    -489.3917632185      2.54E-01  Gap = -216.26 eV  Descent step
 
   ------------------- Entering Geometric Direct Minimization ------------------
   GDM::trust : actual energy change is       -0.493850949227863     
   GDM::trust : predicted energy change was   -0.152685014110526     
   GDM::trust : updated trust radius is        0.330000000000000     
   GDM:         diagonal hessian shift is      0.000000000000000E+000
   GDM::PreWSS: input subspace size is                 19
   GDM::PreWSS: working subspace size set to           18
   GDM::PrEWSS: # of linearly dependent vectors =            0
   GDM::PrEWSS: Max dev from orthonormality =   6.913830619126315E-012
   GDM::BFGS:   lowest Hinv e-value    0.213346690083203     
   GDM::BFGS:   highest Hinv e-value    2.59845535043500     
   GDM::      : max scaling in EWCs is          2.82842712474619     
   GDM::      : max rotation in step is       -0.217992742076087     
   GDM::        grad.step =  -0.210183137867977     
   ------- Leaving GDM -- hopefully with a step in the right direction! --------
 
   23    -489.8856141677      1.93E-01  Gap = -216.26 eV  Descent step
 
   ------------------- Entering Geometric Direct Minimization ------------------
   GDM::trust : actual energy change is       -0.341685209761465     
   GDM::trust : predicted energy change was   -0.141871190665521     
   GDM::trust : updated trust radius is        0.330000000000000     
   GDM:         diagonal hessian shift is      0.000000000000000E+000
   GDM::PreWSS: input subspace size is                 19
   GDM::PreWSS: working subspace size set to           18
   GDM::PrEWSS: # of linearly dependent vectors =            0
   GDM::PrEWSS: Max dev from orthonormality =   1.174894990324526E-011
   GDM::BFGS:   lowest Hinv e-value    0.222961695572385     
   GDM::BFGS:   highest Hinv e-value    2.47058649050247     
   GDM::      : max scaling in EWCs is          2.82842712474619     
   GDM::      : max rotation in step is        0.464596176114474     
   GDM::        grad.step =  -0.166240858328697     
   ------- Leaving GDM -- hopefully with a step in the right direction! --------
 
   24    -490.2272993775      2.51E-01  Gap = -216.26 eV  Descent step
 
   ------------------- Entering Geometric Direct Minimization ------------------
   GDM::trust : actual energy change is        0.231666674891812     
   GDM::trust : predicted energy change was   -0.153692445982767     
   GDM::trust : updated trust radius is        0.108900000000000     
   GDM::search:  On step            1 .  The current bracket is:
       left   : x =  0.0000E+00, e =      -490.2272993775, g = -0.2167E+00
       current: x =  0.7672E+00, e =      -489.9956327026, g =  0.7546E+00
       right  : x =  0.1000E+04, e =      1000.0000000000, g =  0.1000E+04
       next   : x =  0.1603E+00
   GDM::      : max rotation in step is        9.705127529050722E-002
   ------- Leaving GDM -- hopefully with a step in the right direction! --------
 
   25    -489.9956327026      5.98E-02  Gap = -216.26 eV  Line search: overstep
 
   ------------------- Entering Geometric Direct Minimization ------------------
   GDM::trust : actual energy change is       -5.907354500874362E-002
   GDM::trust : predicted energy change was   -0.153692445982767     
   GDM::trust : updated trust radius is        0.108900000000000     
   GDM:         diagonal hessian shift is      0.000000000000000E+000
   GDM::PreWSS: input subspace size is                 19
   GDM::PreWSS: working subspace size set to           18
   GDM::PrEWSS: # of linearly dependent vectors =            0
   GDM::PrEWSS: Max dev from orthonormality =   9.457670757662129E-012
   GDM::BFGS:   lowest Hinv e-value    0.116835247082894     
   GDM::BFGS:   highest Hinv e-value    2.96641326125802     
   GDM::      : max scaling in EWCs is          2.82842712474619     
   GDM::      : max rotation in step is        7.454343731352098E-002
   GDM::        grad.step =  -4.270421829001107E-002
   ------- Leaving GDM -- hopefully with a step in the right direction! --------
 
   26    -490.2863729225      1.31E-01  Gap = -216.26 eV  Descent step
 
   ------------------- Entering Geometric Direct Minimization ------------------
   GDM::trust : actual energy change is       -7.715765488779880E-002
   GDM::trust : predicted energy change was   -1.547228011784490E-002
   GDM::trust : updated trust radius is        0.330000000000000     
   GDM:         diagonal hessian shift is      0.000000000000000E+000
   GDM::PreWSS: input subspace size is                 19
   GDM::PreWSS: working subspace size set to           18
   GDM::PrEWSS: # of linearly dependent vectors =            0
   GDM::PrEWSS: Max dev from orthonormality =   9.038533810290517E-012
   GDM::BFGS:   lowest Hinv e-value    0.144220237598635     
   GDM::BFGS:   highest Hinv e-value    2.84965081783932     
   GDM::trust : dogleg step length is          0.330000000000000     
   GDM::      : max scaling in EWCs is          2.82842712474619     
   GDM::      : max rotation in step is        0.262795610868289     
   GDM::        grad.step =  -0.104905191480334     
   ------- Leaving GDM -- hopefully with a step in the right direction! --------
 
   27    -490.3635305774      1.06E-01  Gap = 5.24 eV  Dog-leg BFGS step
 
   ------------------- Entering Geometric Direct Minimization ------------------
   GDM::trust : actual energy change is       -0.107037124923693     
   GDM::trust : predicted energy change was   -0.129733750919813     
   GDM::trust : updated trust radius is        0.330000000000000     
   GDM:         diagonal hessian shift is      0.000000000000000E+000
   GDM::PreWSS: input subspace size is                 19
   GDM::PreWSS: working subspace size set to           18
   GDM::PrEWSS: # of linearly dependent vectors =            0
   GDM::PrEWSS: Max dev from orthonormality =   1.383589683795483E-011
   GDM::BFGS:   lowest Hinv e-value    0.105833016855632     
   GDM::BFGS:   highest Hinv e-value    2.71327832043220     
   GDM::      : max scaling in EWCs is          2.82842712474619     
   GDM::      : max rotation in step is       -0.399393738514196     
   GDM::        grad.step =  -0.286916264372726     
   ------- Leaving GDM -- hopefully with a step in the right direction! --------
 
   28    -490.4705677023      4.63E-01  Gap = 186.17 eV  Descent step
 
   ------------------- Entering Geometric Direct Minimization ------------------
   GDM::trust : actual energy change is       -4.367043982739460E-002
   GDM::trust : predicted energy change was   -0.543166223430683     
   GDM::trust : updated trust radius is        0.330000000000000     
   GDM:         diagonal hessian shift is      0.000000000000000E+000
   GDM::PreWSS: input subspace size is                 19
   GDM::PreWSS: working subspace size set to           18
   GDM::PrEWSS: # of linearly dependent vectors =            0
   GDM::PrEWSS: Max dev from orthonormality =   7.437564453205425E-012
   GDM::BFGS:   lowest Hinv e-value    9.029196992368918E-002
   GDM::BFGS:   highest Hinv e-value    4.29674408529670     
   GDM::      : max scaling in EWCs is          2.82842712474619     
   GDM::      : max rotation in step is       -0.411059709122336     
   GDM::        grad.step =  -0.484707854133602     
   ------- Leaving GDM -- hopefully with a step in the right direction! --------
 
   29    -490.5142381421      6.47E-01  Gap = 186.17 eV  Descent step
 
   ------------------- Entering Geometric Direct Minimization ------------------
   GDM::trust : actual energy change is       -0.126807542729239     
   GDM::trust : predicted energy change was   -0.579621336160798     
   GDM::trust : updated trust radius is        0.330000000000000     
   GDM:         diagonal hessian shift is      0.000000000000000E+000
   GDM::PreWSS: input subspace size is                 19
   GDM::PreWSS: working subspace size set to           18
   GDM::PrEWSS: # of linearly dependent vectors =            0
   GDM::PrEWSS: Max dev from orthonormality =   1.075795008631530E-011
   GDM::BFGS:   lowest Hinv e-value    0.134394802600332     
   GDM::BFGS:   highest Hinv e-value    3.63862291310622     
   GDM::      : max scaling in EWCs is          2.82842712474619     
   GDM::      : max rotation in step is        0.423722834729602     
   GDM::        grad.step =  -0.461872568018175     
   ------- Leaving GDM -- hopefully with a step in the right direction! --------
 
   30    -490.6410456849      6.43E-01  Gap = 186.17 eV  Descent step
 
   ------------------- Entering Geometric Direct Minimization ------------------
   GDM::trust : actual energy change is        0.180398979442316     
   GDM::trust : predicted energy change was   -0.488096666087254     
   GDM::trust : updated trust radius is        0.108900000000000     
   GDM::search:  On step            1 .  The current bracket is:
       left   : x =  0.0000E+00, e =      -490.6410456849, g = -0.6126E+00
       current: x =  0.7539E+00, e =      -490.4606467054, g =  0.8075E+00
       right  : x =  0.1000E+04, e =      1000.0000000000, g =  0.1000E+04
       next   : x =  0.2711E+00
   GDM::      : max rotation in step is        0.152354525572800     
   ------- Leaving GDM -- hopefully with a step in the right direction! --------
 
   31    -490.4606467054      3.79E-02  Gap = 186.17 eV  Line search: overstep
 
   ------------------- Entering Geometric Direct Minimization ------------------
   GDM::trust : actual energy change is       -0.194484730356407     
   GDM::trust : predicted energy change was   -0.488096666087254     
   GDM::trust : updated trust radius is        0.108900000000000     
   GDM:         diagonal hessian shift is      0.000000000000000E+000
   GDM::PreWSS: input subspace size is                 19
   GDM::PreWSS: working subspace size set to           18
   GDM::PrEWSS: # of linearly dependent vectors =            0
   GDM::PrEWSS: Max dev from orthonormality =   7.460382138446686E-012
   GDM::BFGS:   lowest Hinv e-value    0.132981341747610     
   GDM::BFGS:   highest Hinv e-value    3.04644365034624     
   GDM::      : max scaling in EWCs is          2.82842712474619     
   GDM::      : max rotation in step is       -7.158537279861125E-002
   GDM::        grad.step =  -4.901730059557902E-002
   ------- Leaving GDM -- hopefully with a step in the right direction! --------
 
   32    -490.8355304152      1.68E-01  Gap = 186.17 eV  Descent step
 
   ------------------- Entering Geometric Direct Minimization ------------------
   GDM::trust : actual energy change is       -4.967960707114116E-002
   GDM::trust : predicted energy change was   -2.086838892472047E-002
   GDM::trust : updated trust radius is        0.330000000000000     
   GDM:         diagonal hessian shift is      0.000000000000000E+000
   GDM::PreWSS: input subspace size is                 19
   GDM::PreWSS: working subspace size set to           18
   GDM::PrEWSS: # of linearly dependent vectors =            0
   GDM::PrEWSS: Max dev from orthonormality =   3.949590654528379E-012
   GDM::BFGS:   lowest Hinv e-value    0.106777245109387     
   GDM::BFGS:   highest Hinv e-value    2.53400817078555     
   GDM::      : max scaling in EWCs is          2.82842712474619     
   GDM::      : max rotation in step is        9.576969115148376E-002
   GDM::        grad.step =  -4.450056934714730E-002
   ------- Leaving GDM -- hopefully with a step in the right direction! --------
 
   33    -490.8852100223      1.29E-01  Gap = 186.17 eV  Normal BFGS step
 
   ------------------- Entering Geometric Direct Minimization ------------------
   GDM::trust : actual energy change is       -3.668451644915649E-002
   GDM::trust : predicted energy change was   -6.675085402072095E-002
   GDM::trust : updated trust radius is        0.330000000000000     
   GDM:         diagonal hessian shift is      0.000000000000000E+000
   GDM::PreWSS: input subspace size is                 19
   GDM::PreWSS: working subspace size set to           18
   GDM::PrEWSS: # of linearly dependent vectors =            0
   GDM::PrEWSS: Max dev from orthonormality =   3.599121001229832E-012
   GDM::BFGS:   lowest Hinv e-value    0.142693903215831     
   GDM::BFGS:   highest Hinv e-value    2.64758470284861     
   GDM::      : max scaling in EWCs is          2.82842712474619     
   GDM::      : max rotation in step is       -0.107450522836991     
   GDM::        grad.step =  -1.376409249991538E-002
   ------- Leaving GDM -- hopefully with a step in the right direction! --------
 
   34    -490.9218945387      5.82E-02  Gap = 186.17 eV  Normal BFGS step
 
   ------------------- Entering Geometric Direct Minimization ------------------
   GDM::trust : actual energy change is       -1.103152810293295E-002
   GDM::trust : predicted energy change was   -2.064613874987306E-002
   GDM::trust : updated trust radius is        0.330000000000000     
   GDM:         diagonal hessian shift is      0.000000000000000E+000
   GDM::PreWSS: input subspace size is                 19
   GDM::PreWSS: working subspace size set to           18
   GDM::PrEWSS: # of linearly dependent vectors =            0
   GDM::PrEWSS: Max dev from orthonormality =   2.409204780118301E-012
   GDM::BFGS:   lowest Hinv e-value    0.127266437733600     
   GDM::BFGS:   highest Hinv e-value    2.52144494668721     
   GDM::      : max scaling in EWCs is          2.82842712474619     
   GDM::      : max rotation in step is       -2.344149654364301E-002
   GDM::        grad.step =  -4.012725102754236E-003
   ------- Leaving GDM -- hopefully with a step in the right direction! --------
 
   35    -490.9329260668      5.97E-02  Gap = 186.17 eV  Normal BFGS step
 
   ------------------- Entering Geometric Direct Minimization ------------------
   GDM::trust : actual energy change is       -3.904395493236734E-003
   GDM::trust : predicted energy change was   -6.019087654131354E-003
   GDM::trust : updated trust radius is        0.330000000000000     
   GDM:         diagonal hessian shift is      0.000000000000000E+000
   GDM::PreWSS: input subspace size is                 19
   GDM::PreWSS: working subspace size set to           18
   GDM::PrEWSS: # of linearly dependent vectors =            0
   GDM::PrEWSS: Max dev from orthonormality =   1.820245343342464E-012
   GDM::BFGS:   lowest Hinv e-value    0.134937210780274     
   GDM::BFGS:   highest Hinv e-value    2.66659027614059     
   GDM::      : max scaling in EWCs is          2.82842712474619     
   GDM::      : max rotation in step is        1.983908463316874E-002
   GDM::        grad.step =  -1.303028447381729E-003
   ------- Leaving GDM -- hopefully with a step in the right direction! --------
 
   36    -490.9368304623      1.19E-02  Gap = 186.17 eV  Normal BFGS step
 
   ------------------- Entering Geometric Direct Minimization ------------------
   GDM::trust : actual energy change is       -4.943766720089116E-004
   GDM::trust : predicted energy change was   -1.954542671072593E-003
   GDM::trust : updated trust radius is        0.330000000000000     
   GDM:         diagonal hessian shift is      0.000000000000000E+000
   GDM::PreWSS: input subspace size is                 19
   GDM::PreWSS: working subspace size set to           18
   GDM::PrEWSS: # of linearly dependent vectors =            0
   GDM::PrEWSS: Max dev from orthonormality =   3.298413625563157E-012
   GDM::BFGS:   lowest Hinv e-value    0.129606594675554     
   GDM::BFGS:   highest Hinv e-value    2.01121928797626     
   GDM::      : max scaling in EWCs is          2.82842712474619     
   GDM::      : max rotation in step is       -1.501571299444636E-002
   GDM::        grad.step =  -8.798162092626500E-004
   ------- Leaving GDM -- hopefully with a step in the right direction! --------
 
   37    -490.9373248390      1.66E-02  Gap = 186.17 eV  Normal BFGS step
 
   ------------------- Entering Geometric Direct Minimization ------------------
   GDM::trust : actual energy change is       -6.845039084169002E-004
   GDM::trust : predicted energy change was   -1.319724313893975E-003
   GDM::trust : updated trust radius is        0.330000000000000     
   GDM:         diagonal hessian shift is      0.000000000000000E+000
   GDM::PreWSS: input subspace size is                 19
   GDM::PreWSS: working subspace size set to           18
   GDM::PrEWSS: # of linearly dependent vectors =            0
   GDM::PrEWSS: Max dev from orthonormality =   1.835315233122969E-011
   GDM::BFGS:   lowest Hinv e-value    0.128412538368245     
   GDM::BFGS:   highest Hinv e-value    1.94895455153362     
   GDM::      : max scaling in EWCs is          2.82842712474619     
   GDM::      : max rotation in step is        1.351267383191596E-002
   GDM::        grad.step =  -1.782716600523421E-004
   ------- Leaving GDM -- hopefully with a step in the right direction! --------
 
   38    -490.9380093429      5.50E-03  Gap = 186.17 eV  Normal BFGS step
 
   ------------------- Entering Geometric Direct Minimization ------------------
   GDM::trust : actual energy change is       -2.544725332427333E-004
   GDM::trust : predicted energy change was   -2.674074900785132E-004
   GDM::trust : updated trust radius is        0.330000000000000     
   GDM:         diagonal hessian shift is      0.000000000000000E+000
   GDM::PreWSS: input subspace size is                 19
   GDM::PreWSS: working subspace size set to           18
   GDM::PrEWSS: # of linearly dependent vectors =            0
   GDM::PrEWSS: Max dev from orthonormality =   8.848794960658601E-012
   GDM::BFGS:   lowest Hinv e-value    0.122728640877652     
   GDM::BFGS:   highest Hinv e-value    4.30786732256887     
   GDM::      : max scaling in EWCs is          2.82842712474619     
   GDM::      : max rotation in step is        7.351784134626516E-002
   GDM::        grad.step =  -4.461329785809912E-004
   ------- Leaving GDM -- hopefully with a step in the right direction! --------
 
   39    -490.9382638155      8.27E-03  Gap = 186.17 eV  Normal BFGS step
 
   ------------------- Entering Geometric Direct Minimization ------------------
   GDM::trust : actual energy change is       -1.270937748756751E-003
   GDM::trust : predicted energy change was   -6.691994678714869E-004
   GDM::trust : updated trust radius is        0.330000000000000     
   GDM::search:  On step            1 .  The current bracket is:
       left   : x =  0.0000E+00, e =      -490.9382638155, g = -0.4185E-02
       current: x =  0.1066E+00, e =      -490.9395347532, g = -0.7650E-02
       right  : x =  0.1000E+04, e =      1000.0000000000, g =  0.1000E+04
       next   : x =  0.1066E+01
   GDM::      : max rotation in step is        0.735178413462652     
   ------- Leaving GDM -- hopefully with a step in the right direction! --------
 
   40    -490.9395347532      1.14E-03  Gap = 186.17 eV  Line search: understep
 
   ------------------- Entering Geometric Direct Minimization ------------------
   GDM::trust : actual energy change is       -1.785934882792617E-002
   GDM::trust : predicted energy change was   -6.691994678714869E-004
   GDM::trust : updated trust radius is        0.330000000000000     
   GDM:         diagonal hessian shift is      0.000000000000000E+000
   GDM::PreWSS: input subspace size is                 19
   GDM::PreWSS: working subspace size set to           18
   GDM::PrEWSS: # of linearly dependent vectors =            0
   GDM::PrEWSS: Max dev from orthonormality =   1.867145327238973E-012
   GDM::BFGS:   lowest Hinv e-value    3.556277094918507E-002
   GDM::BFGS:   highest Hinv e-value    162.815189634499     
   GDM::      : max scaling in EWCs is          2.82842712474619     
   GDM::      : max rotation in step is        0.446758827785634     
   GDM::        grad.step =  -0.131251284174394     
   ------- Leaving GDM -- hopefully with a step in the right direction! --------
 
   41    -490.9561231643      2.05E-01  Gap = 186.17 eV  Descent step
 
   ------------------- Entering Geometric Direct Minimization ------------------
   GDM::trust : actual energy change is        0.254422951865081     
   GDM::trust : predicted energy change was    -1.58856313737882     
   GDM::trust : updated trust radius is        0.108900000000000     
   GDM::search:  On step            1 .  The current bracket is:
       left   : x =  0.0000E+00, e =      -490.9561231643, g = -0.1886E+00
       current: x =  0.6958E+00, e =      -490.7017002124, g =  0.6031E+00
       right  : x =  0.1000E+04, e =      1000.0000000000, g =  0.1000E+04
       next   : x =  0.1184E+00
   GDM::      : max rotation in step is        7.601968758046572E-002
   ------- Leaving GDM -- hopefully with a step in the right direction! --------
 
   42    -490.7017002124      4.51E-02  Gap = 186.17 eV  Line search: overstep
 
   ------------------- Entering Geometric Direct Minimization ------------------
   GDM::trust : actual energy change is       -3.312395123441547E-002
   GDM::trust : predicted energy change was    -1.58856313737882     
   GDM::trust : updated trust radius is        0.108900000000000     
   GDM:         diagonal hessian shift is      0.000000000000000E+000
   GDM::PreWSS: input subspace size is                 19
   GDM::PreWSS: working subspace size set to           18
   GDM::PrEWSS: # of linearly dependent vectors =            0
   GDM::PrEWSS: Max dev from orthonormality =   1.600801088907922E-012
   GDM::BFGS:   lowest Hinv e-value    0.137030113974948     
   GDM::BFGS:   highest Hinv e-value    170.715926186381     
   GDM::      : max scaling in EWCs is          2.82842712474619     
   GDM::      : max rotation in step is        0.130491641170414     
   GDM::        grad.step =  -2.695206803514100E-002
   ------- Leaving GDM -- hopefully with a step in the right direction! --------
 
   43    -490.9892471155      1.05E-01  Gap = 186.17 eV  Descent step
 
   ------------------- Entering Geometric Direct Minimization ------------------
   GDM::trust : actual energy change is       -4.470182436415371E-002
   GDM::trust : predicted energy change was   -2.410831526696866E-002
   GDM::trust : updated trust radius is        0.330000000000000     
   GDM:         diagonal hessian shift is      0.000000000000000E+000
   GDM::PreWSS: input subspace size is                 19
   GDM::PreWSS: working subspace size set to           18
   GDM::PrEWSS: # of linearly dependent vectors =            0
   GDM::PrEWSS: Max dev from orthonormality =   7.588998873764297E-013
   GDM::BFGS:   lowest Hinv e-value    0.146393084683296     
   GDM::BFGS:   highest Hinv e-value    243.799894508717     
   GDM::trust : dogleg step length is          0.330000000000000     
   GDM::      : max scaling in EWCs is          2.82842712474619     
   GDM::      : max rotation in step is        0.480610957247447     
   GDM::        grad.step =  -6.095586111260637E-002
   ------- Leaving GDM -- hopefully with a step in the right direction! --------
 
   44    -491.0339489399      8.27E-02  Gap = 186.17 eV  Dog-leg BFGS step
 
   ------------------- Entering Geometric Direct Minimization ------------------
   GDM::trust : actual energy change is       -4.297686138369272E-002
   GDM::trust : predicted energy change was   -7.934517585603779E-002
   GDM::trust : updated trust radius is        0.330000000000000     
   GDM:         diagonal hessian shift is      0.000000000000000E+000
   GDM::PreWSS: input subspace size is                 19
   GDM::PreWSS: working subspace size set to           18
   GDM::PrEWSS: # of linearly dependent vectors =            0
   GDM::PrEWSS: Max dev from orthonormality =   8.460957628964039E-013
   GDM::BFGS:   lowest Hinv e-value    0.168424053505009     
   GDM::BFGS:   highest Hinv e-value    63.1928968114975     
   GDM::trust : dogleg step length is          0.330000000000000     
   GDM::      : max scaling in EWCs is          2.82842712474619     
   GDM::      : max rotation in step is       -0.216946343023829     
   GDM::        grad.step =  -7.884391411910260E-002
   ------- Leaving GDM -- hopefully with a step in the right direction! --------
 
   45    -491.0769258013      7.40E-02  Gap = 186.17 eV  Dog-leg BFGS step
 
   ------------------- Entering Geometric Direct Minimization ------------------
   GDM::trust : actual energy change is        0.175830460557449     
   GDM::trust : predicted energy change was   -0.171661339776551     
   GDM::trust : updated trust radius is        0.108900000000000     
   GDM::search:  On step            1 .  The current bracket is:
       left   : x =  0.0000E+00, e =      -491.0769258013, g = -0.1416E+00
       current: x =  0.5568E+00, e =      -490.9010953407, g =  0.3658E+00
       right  : x =  0.1000E+04, e =      1000.0000000000, g =  0.1000E+04
       next   : x =  0.8619E-01
   GDM::      : max rotation in step is       -3.358190014120600E-002
   ------- Leaving GDM -- hopefully with a step in the right direction! --------
 
   46    -490.9010953407      1.18E-02  Gap = 186.17 eV  Line search: overstep
 
   ------------------- Entering Geometric Direct Minimization ------------------
   GDM::trust : actual energy change is       -1.443295090933816E-002
   GDM::trust : predicted energy change was   -0.171661339776551     
   GDM::trust : updated trust radius is        0.108900000000000     
   GDM:         diagonal hessian shift is      0.000000000000000E+000
   GDM::PreWSS: input subspace size is                 19
   GDM::PreWSS: working subspace size set to           18
   GDM::PrEWSS: # of linearly dependent vectors =            0
   GDM::PrEWSS: Max dev from orthonormality =   7.833074466834233E-013
   GDM::BFGS:   lowest Hinv e-value    0.158097090677843     
   GDM::BFGS:   highest Hinv e-value    40.7769664032243     
   GDM::      : max scaling in EWCs is          2.82842712474619     
   GDM::      : max rotation in step is       -8.659979546130786E-002
   GDM::        grad.step =  -1.435689791197471E-002
   ------- Leaving GDM -- hopefully with a step in the right direction! --------
 
   47    -491.0913587522      5.36E-02  Gap = 186.17 eV  Descent step
 
   ------------------- Entering Geometric Direct Minimization ------------------
   GDM::trust : actual energy change is       -9.712833590924674E-003
   GDM::trust : predicted energy change was   -1.645648256589215E-002
   GDM::trust : updated trust radius is        0.330000000000000     
   GDM:         diagonal hessian shift is      0.000000000000000E+000
   GDM::PreWSS: input subspace size is                 19
   GDM::PreWSS: working subspace size set to           18
   GDM::PrEWSS: # of linearly dependent vectors =            0
   GDM::PrEWSS: Max dev from orthonormality =   9.654430033201322E-013
   GDM::BFGS:   lowest Hinv e-value    0.168678405294651     
   GDM::BFGS:   highest Hinv e-value    25.9210723608011     
   GDM::      : max scaling in EWCs is          2.82842712474619     
   GDM::      : max rotation in step is       -0.226118656641109     
   GDM::        grad.step =  -4.528289892043521E-003
   ------- Leaving GDM -- hopefully with a step in the right direction! --------
 
   48    -491.1010715858      2.73E-02  Gap = 186.17 eV  Normal BFGS step
 
   ------------------- Entering Geometric Direct Minimization ------------------
   GDM::trust : actual energy change is        3.639542290954978E-003
   GDM::trust : predicted energy change was   -6.792434838065284E-003
   GDM::trust : updated trust radius is        0.108900000000000     
   GDM::search:  On step            1 .  The current bracket is:
       left   : x =  0.0000E+00, e =      -491.1010715858, g = -0.1362E-01
       current: x =  0.3325E+00, e =      -491.0974320435, g =  0.3081E-01
       right  : x =  0.1000E+04, e =      1000.0000000000, g =  0.1000E+04
       next   : x =  0.9216E-01
   GDM::      : max rotation in step is       -6.268069692970216E-002
   ------- Leaving GDM -- hopefully with a step in the right direction! --------
 
   49    -491.0974320435      4.81E-03  Gap = 186.17 eV  Line search: overstep
 
   ------------------- Entering Geometric Direct Minimization ------------------
   GDM::trust : actual energy change is       -1.693232729166994E-003
   GDM::trust : predicted energy change was   -6.792434838065284E-003
   GDM::trust : updated trust radius is        0.108900000000000     
   GDM:         diagonal hessian shift is      0.000000000000000E+000
   GDM::PreWSS: input subspace size is                 19
   GDM::PreWSS: working subspace size set to           18
   GDM::PrEWSS: # of linearly dependent vectors =            0
   GDM::PrEWSS: Max dev from orthonormality =   3.195534115096876E-012
   GDM::BFGS:   lowest Hinv e-value    0.165975507718868     
   GDM::BFGS:   highest Hinv e-value    4.28326167782621     
   GDM::trust : dogleg step length is          0.108900000000000     
   GDM::      : max scaling in EWCs is          2.82842712474619     
   GDM::      : max rotation in step is       -4.218607800801928E-002
   GDM::        grad.step =  -1.026535262789570E-002
   ------- Leaving GDM -- hopefully with a step in the right direction! --------
 
   50    -491.1027648185      2.26E-02  Gap = 186.17 eV  Dog-leg BFGS step
 
   ------------------- Entering Geometric Direct Minimization ------------------
   GDM::trust : actual energy change is        1.394772494728613E-002
   GDM::trust : predicted energy change was   -1.705446095086765E-002
   GDM::trust : updated trust radius is        3.593700000000000E-002
   GDM::search:  On step            1 .  The current bracket is:
       left   : x =  0.0000E+00, e =      -491.1027648185, g = -0.6840E-01
       current: x =  0.1501E+00, e =      -491.0888170935, g =  0.1591E+00
       right  : x =  0.1000E+04, e =      1000.0000000000, g =  0.1000E+04
       next   : x =  0.3181E-01
   GDM::      : max rotation in step is       -8.942584134453665E-003
   ------- Leaving GDM -- hopefully with a step in the right direction! --------
 
   51    -491.0888170935      2.00E-02  Gap = 186.17 eV  Line search: overstep
 
   ------------------- Entering Geometric Direct Minimization ------------------
   GDM::trust : actual energy change is       -2.783127910163330E-003
   GDM::trust : predicted energy change was   -1.705446095086765E-002
   GDM::trust : updated trust radius is        3.593700000000000E-002
   GDM:         diagonal hessian shift is      0.000000000000000E+000
   GDM::PreWSS: input subspace size is                 19
   GDM::PreWSS: working subspace size set to           18
   GDM::PrEWSS: # of linearly dependent vectors =            0
   GDM::PrEWSS: Max dev from orthonormality =   8.631630132871493E-012
   GDM::BFGS:   lowest Hinv e-value    0.173089613569962     
   GDM::BFGS:   highest Hinv e-value    3.09666504116579     
   GDM::      : max scaling in EWCs is          2.82842712474619     
   GDM::      : max rotation in step is       -4.334960461034352E-002
   GDM::        grad.step =  -8.768451574054872E-004
   ------- Leaving GDM -- hopefully with a step in the right direction! --------
 
   52    -491.1055479464      1.37E-02  Gap = 186.17 eV  Normal BFGS step
 
   ------------------- Entering Geometric Direct Minimization ------------------
   GDM::trust : actual energy change is       -6.830974347167285E-004
   GDM::trust : predicted energy change was   -1.315267736108231E-003
   GDM::trust : updated trust radius is        0.330000000000000     
   GDM:         diagonal hessian shift is      0.000000000000000E+000
   GDM::PreWSS: input subspace size is                 19
   GDM::PreWSS: working subspace size set to           18
   GDM::PrEWSS: # of linearly dependent vectors =            0
   GDM::PrEWSS: Max dev from orthonormality =   3.339802392976488E-012
   GDM::BFGS:   lowest Hinv e-value    0.162665379253272     
   GDM::BFGS:   highest Hinv e-value    3.54492870507246     
   GDM::      : max scaling in EWCs is          2.82842712474619     
   GDM::      : max rotation in step is       -3.940947778680701E-002
   GDM::        grad.step =  -5.187807786490818E-004
   ------- Leaving GDM -- hopefully with a step in the right direction! --------
 
   53    -491.1062310438      9.23E-03  Gap = 5.24 eV  Normal BFGS step
 
   ------------------- Entering Geometric Direct Minimization ------------------
   GDM::trust : actual energy change is       -3.844088814730640E-004
   GDM::trust : predicted energy change was   -7.781711679736227E-004
   GDM::trust : updated trust radius is        0.330000000000000     
   GDM:         diagonal hessian shift is      0.000000000000000E+000
   GDM::PreWSS: input subspace size is                 19
   GDM::PreWSS: working subspace size set to           18
   GDM::PrEWSS: # of linearly dependent vectors =            0
   GDM::PrEWSS: Max dev from orthonormality =   4.308537901454024E-012
   GDM::BFGS:   lowest Hinv e-value    0.192035919200981     
   GDM::BFGS:   highest Hinv e-value    3.03734174559932     
   GDM::      : max scaling in EWCs is          2.82842712474619     
   GDM::      : max rotation in step is       -8.301880509858979E-003
   GDM::        grad.step =  -2.396073971087273E-004
   ------- Leaving GDM -- hopefully with a step in the right direction! --------
 
   54    -491.1066154527      8.63E-03  Gap = -71.18 eV  Normal BFGS step
 
   ------------------- Entering Geometric Direct Minimization ------------------
   GDM::trust : actual energy change is       -1.742848734238578E-004
   GDM::trust : predicted energy change was   -3.594110956630911E-004
   GDM::trust : updated trust radius is        0.330000000000000     
   GDM:         diagonal hessian shift is      0.000000000000000E+000
   GDM::PreWSS: input subspace size is                 19
   GDM::PreWSS: working subspace size set to           18
   GDM::PrEWSS: # of linearly dependent vectors =            0
   GDM::PrEWSS: Max dev from orthonormality =   3.844327634006106E-012
   GDM::BFGS:   lowest Hinv e-value    0.235439280768095     
   GDM::BFGS:   highest Hinv e-value    2.93056562593767     
   GDM::      : max scaling in EWCs is          2.82842712474619     
   GDM::      : max rotation in step is       -1.559031525853548E-002
   GDM::        grad.step =  -1.330657897637552E-004
   ------- Leaving GDM -- hopefully with a step in the right direction! --------
 
   55    -491.1067897376      3.72E-03  Gap = -71.18 eV  Normal BFGS step
 
   ------------------- Entering Geometric Direct Minimization ------------------
   GDM::trust : actual energy change is       -1.254066501132911E-004
   GDM::trust : predicted energy change was   -1.995986846456327E-004
   GDM::trust : updated trust radius is        0.330000000000000     
   GDM:         diagonal hessian shift is      0.000000000000000E+000
   GDM::PreWSS: input subspace size is                 19
   GDM::PreWSS: working subspace size set to           18
   GDM::PrEWSS: # of linearly dependent vectors =            0
   GDM::PrEWSS: Max dev from orthonormality =   3.579619239912901E-012
   GDM::BFGS:   lowest Hinv e-value    0.232967293665125     
   GDM::BFGS:   highest Hinv e-value    3.48798185704751     
   GDM::      : max scaling in EWCs is          2.82842712474619     
   GDM::      : max rotation in step is       -1.627173912369208E-002
   GDM::        grad.step =  -4.703605762545766E-005
   ------- Leaving GDM -- hopefully with a step in the right direction! --------
 
   56    -491.1069151442      2.06E-03  Gap = -71.18 eV  Normal BFGS step
 
   ------------------- Entering Geometric Direct Minimization ------------------
   GDM::trust : actual energy change is       -3.336499850092878E-005
   GDM::trust : predicted energy change was   -7.055408643818649E-005
   GDM::trust : updated trust radius is        0.330000000000000     
   GDM:         diagonal hessian shift is      0.000000000000000E+000
   GDM::PreWSS: input subspace size is                 19
   GDM::PreWSS: working subspace size set to           18
   GDM::PrEWSS: # of linearly dependent vectors =            0
   GDM::PrEWSS: Max dev from orthonormality =   4.262781100328183E-012
   GDM::BFGS:   lowest Hinv e-value    0.195794493732183     
   GDM::BFGS:   highest Hinv e-value    3.24343210953026     
   GDM::      : max scaling in EWCs is          2.82842712474619     
   GDM::      : max rotation in step is       -2.328932945815874E-003
   GDM::        grad.step =  -2.026773020167883E-005
   ------- Leaving GDM -- hopefully with a step in the right direction! --------
 
   57    -491.1069485092      2.92E-03  Gap = -71.18 eV  Normal BFGS step
 
   ------------------- Entering Geometric Direct Minimization ------------------
   GDM::trust : actual energy change is       -2.110089724283171E-005
   GDM::trust : predicted energy change was   -3.040159530251826E-005
   GDM::trust : updated trust radius is        0.330000000000000     
   GDM:         diagonal hessian shift is      0.000000000000000E+000
   GDM::PreWSS: input subspace size is                 19
   GDM::PreWSS: working subspace size set to           18
   GDM::PrEWSS: # of linearly dependent vectors =            0
   GDM::PrEWSS: Max dev from orthonormality =   1.695997509099101E-012
   GDM::BFGS:   lowest Hinv e-value    0.207082542370014     
   GDM::BFGS:   highest Hinv e-value    3.31240356582068     
   GDM::      : max scaling in EWCs is          2.82842712474619     
   GDM::      : max rotation in step is       -5.344273351406645E-003
   GDM::        grad.step =  -3.924667388168331E-006
   ------- Leaving GDM -- hopefully with a step in the right direction! --------
 
   58    -491.1069696101      7.31E-04  Gap = -71.18 eV  Normal BFGS step
 
   ------------------- Entering Geometric Direct Minimization ------------------
   GDM::trust : actual energy change is       -3.579276381060481E-006
   GDM::trust : predicted energy change was   -5.887001082252496E-006
   GDM::trust : updated trust radius is        0.330000000000000     
   GDM:         diagonal hessian shift is      0.000000000000000E+000
   GDM::PreWSS: input subspace size is                 19
   GDM::PreWSS: working subspace size set to           18
   GDM::PrEWSS: # of linearly dependent vectors =            0
   GDM::PrEWSS: Max dev from orthonormality =   2.791073448749071E-011
   GDM::BFGS:   lowest Hinv e-value    0.200801052585322     
   GDM::BFGS:   highest Hinv e-value    3.86102239149159     
   GDM::      : max scaling in EWCs is          2.82842712474619     
   GDM::      : max rotation in step is       -2.259360878748490E-003
   GDM::        grad.step =  -8.399688877906563E-007
   ------- Leaving GDM -- hopefully with a step in the right direction! --------
 
   59    -491.1069731894      4.14E-04  Gap = -71.18 eV  Normal BFGS step
 
   ------------------- Entering Geometric Direct Minimization ------------------
   GDM::trust : actual energy change is       -1.061470698004996E-006
   GDM::trust : predicted energy change was   -1.259953331685984E-006
   GDM::trust : updated trust radius is        0.330000000000000     
   GDM:         diagonal hessian shift is      0.000000000000000E+000
   GDM::PreWSS: input subspace size is                 19
   GDM::PreWSS: working subspace size set to           18
   GDM::PrEWSS: # of linearly dependent vectors =            0
   GDM::PrEWSS: Max dev from orthonormality =   3.307928930773585E-011
   GDM::BFGS:   lowest Hinv e-value    0.204980436676984     
   GDM::BFGS:   highest Hinv e-value    4.60670290530714     
   GDM::      : max scaling in EWCs is          2.82842712474619     
   GDM::      : max rotation in step is       -2.435142674600529E-003
   GDM::        grad.step =  -5.422020577164078E-007
   ------- Leaving GDM -- hopefully with a step in the right direction! --------
 
   60    -491.1069742509      4.35E-04  Gap = -71.18 eV  Normal BFGS step
 
   ------------------- Entering Geometric Direct Minimization ------------------
   GDM::trust : actual energy change is       -8.897552561393240E-007
   GDM::trust : predicted energy change was   -8.133030865746115E-007
   GDM::trust : updated trust radius is        0.330000000000000     
   GDM:         diagonal hessian shift is      0.000000000000000E+000
   GDM::PreWSS: input subspace size is                 19
   GDM::PreWSS: working subspace size set to           18
   GDM::PrEWSS: # of linearly dependent vectors =            0
   GDM::PrEWSS: Max dev from orthonormality =   2.010250299555594E-011
   GDM::BFGS:   lowest Hinv e-value    0.209513225147874     
   GDM::BFGS:   highest Hinv e-value    11.4834209084089     
   GDM::      : max scaling in EWCs is          2.82842712474619     
   GDM::      : max rotation in step is       -7.598201638891866E-003
   GDM::        grad.step =  -1.538525533583122E-006
   ------- Leaving GDM -- hopefully with a step in the right direction! --------
 
   61    -491.1069751406      4.04E-04  Gap = -71.18 eV  Normal BFGS step
 
   ------------------- Entering Geometric Direct Minimization ------------------
   GDM::trust : actual energy change is       -2.138196464329667E-006
   GDM::trust : predicted energy change was   -2.307788300374682E-006
   GDM::trust : updated trust radius is        0.330000000000000     
   GDM:         diagonal hessian shift is      0.000000000000000E+000
   GDM::PreWSS: input subspace size is                 19
   GDM::PreWSS: working subspace size set to           18
   GDM::PrEWSS: # of linearly dependent vectors =            0
   GDM::PrEWSS: Max dev from orthonormality =   3.315183717822467E-011
   GDM::BFGS:   lowest Hinv e-value    0.195170834620511     
   GDM::BFGS:   highest Hinv e-value    19.4716996347436     
   GDM::      : max scaling in EWCs is          2.82842712474619     
   GDM::      : max rotation in step is       -8.045886595505414E-003
   GDM::        grad.step =  -1.132758499075605E-006
   ------- Leaving GDM -- hopefully with a step in the right direction! --------
 
   62    -491.1069772788      3.32E-04  Gap = -71.18 eV  Normal BFGS step
 
   ------------------- Entering Geometric Direct Minimization ------------------
   GDM::trust : actual energy change is       -1.556620532028319E-006
   GDM::trust : predicted energy change was   -1.699137748613408E-006
   GDM::trust : updated trust radius is        0.330000000000000     
   GDM:         diagonal hessian shift is      0.000000000000000E+000
   GDM::PreWSS: input subspace size is                 19
   GDM::PreWSS: working subspace size set to           18
   GDM::PrEWSS: # of linearly dependent vectors =            1
   GDM::PrEWSS: Max dev from orthonormality =   1.924410283904443E-011
   GDM::BFGS:   lowest Hinv e-value    0.199110920920017     
   GDM::BFGS:   highest Hinv e-value    24.0753001257294     
   GDM::      : max scaling in EWCs is          2.82842712474619     
   GDM::      : max rotation in step is       -5.476447956789336E-003
   GDM::        grad.step =  -6.585659047656785E-007
   ------- Leaving GDM -- hopefully with a step in the right direction! --------
 
   63    -491.1069788355      2.51E-04  Gap = -71.18 eV  Normal BFGS step
 
   ------------------- Entering Geometric Direct Minimization ------------------
   GDM::trust : actual energy change is       -7.957456205076596E-007
   GDM::trust : predicted energy change was   -9.878488571485181E-007
   GDM::trust : updated trust radius is        0.330000000000000     
   GDM:         diagonal hessian shift is      0.000000000000000E+000
   GDM::PreWSS: input subspace size is                 19
   GDM::PreWSS: working subspace size set to           18
   GDM::PrEWSS: # of linearly dependent vectors =            1
   GDM::PrEWSS: Max dev from orthonormality =   6.606041842022181E-011
   GDM::BFGS:   lowest Hinv e-value    0.212548049899448     
   GDM::BFGS:   highest Hinv e-value    22.3423525425424     
   GDM::      : max scaling in EWCs is          2.82842712474619     
   GDM::      : max rotation in step is       -5.481653554179223E-004
   GDM::        grad.step =  -1.195744334276836E-007
   ------- Leaving GDM -- hopefully with a step in the right direction! --------
 
   64    -491.1069796312      1.47E-04  Gap = -71.18 eV  Normal BFGS step
 
   ------------------- Entering Geometric Direct Minimization ------------------
   GDM::trust : actual energy change is       -1.191261844724067E-007
   GDM::trust : predicted energy change was   -1.793616501415255E-007
   GDM::trust : updated trust radius is        0.330000000000000     
   GDM:         diagonal hessian shift is      0.000000000000000E+000
   GDM::PreWSS: input subspace size is                 19
   GDM::PreWSS: working subspace size set to           18
   GDM::PrEWSS: # of linearly dependent vectors =            1
   GDM::PrEWSS: Max dev from orthonormality =   5.254188750747346E-011
   GDM::BFGS:   lowest Hinv e-value    0.214169542793820     
   GDM::BFGS:   highest Hinv e-value    21.8227499772098     
   GDM::      : max scaling in EWCs is          2.82842712474619     
   GDM::      : max rotation in step is        2.553790745496838E-004
   GDM::        grad.step =  -1.200491588629916E-008
   ------- Leaving GDM -- hopefully with a step in the right direction! --------
 
   65    -491.1069797503      2.58E-05  Gap = -71.18 eV  Normal BFGS step
 
   ------------------- Entering Geometric Direct Minimization ------------------
   GDM::trust : actual energy change is       -9.573454917699564E-009
   GDM::trust : predicted energy change was   -1.800737382944874E-008
   GDM::trust : updated trust radius is        0.330000000000000     
   GDM:         diagonal hessian shift is      0.000000000000000E+000
   GDM::PreWSS: input subspace size is                 19
   GDM::PreWSS: working subspace size set to           18
   GDM::PrEWSS: # of linearly dependent vectors =            1
   GDM::PrEWSS: Max dev from orthonormality =   2.551687784679846E-010
   GDM::BFGS:   lowest Hinv e-value    0.217566971922180     
   GDM::BFGS:   highest Hinv e-value    22.8358245896025     
   GDM::      : max scaling in EWCs is          2.82842712474619     
   GDM::      : max rotation in step is        1.159246884522334E-004
   GDM::        grad.step =  -1.314872262045798E-009
   ------- Leaving GDM -- hopefully with a step in the right direction! --------
 
   66    -491.1069797599      1.18E-05  Gap = -71.18 eV  Normal BFGS step
 
   ------------------- Entering Geometric Direct Minimization ------------------
   GDM::trust : actual energy change is       -1.135845195676666E-009
   GDM::trust : predicted energy change was   -1.972308393068697E-009
   GDM::trust : updated trust radius is        0.330000000000000     
   GDM:         diagonal hessian shift is      0.000000000000000E+000
   GDM::PreWSS: input subspace size is                 19
   GDM::PreWSS: working subspace size set to           18
   GDM::PrEWSS: # of linearly dependent vectors =            1
   GDM::PrEWSS: Max dev from orthonormality =   3.832544906434698E-010
   GDM::BFGS:   lowest Hinv e-value    0.219087342996929     
   GDM::BFGS:   highest Hinv e-value    23.6562956969039     
   GDM::      : max scaling in EWCs is          2.82842712474619     
   GDM::      : max rotation in step is        4.666232680371545E-005
   GDM::        grad.step =  -2.088194318969286E-010
   ------- Leaving GDM -- hopefully with a step in the right direction! --------
 
   67    -491.1069797610      5.04E-06  Gap = -71.18 eV  Normal BFGS step
 
   ------------------- Entering Geometric Direct Minimization ------------------
   GDM::trust : actual energy change is       -9.890754881780595E-011
   GDM::trust : predicted energy change was   -3.132291478453930E-010
   GDM::trust : updated trust radius is        0.330000000000000     
[...]
   GDM::      : max scaling in EWCs is          2.66965647340647     
   GDM::      : max rotation in step is       -1.471444018492864E-005
   GDM::        grad.step =  -3.940405279240125E-009
   ------- Leaving GDM -- hopefully with a step in the right direction! --------
 
    5    -491.2018590468      2.03E-05  Gap = 0.00 eV  Normal BFGS step
 
   ------------------- Entering Geometric Direct Minimization ------------------
   GDM::trust : actual energy change is       -2.102467533404706E-009
   GDM::trust : predicted energy change was   -5.910607918860188E-009
   GDM::trust : updated trust radius is        0.330000000000000     
   GDM:         diagonal hessian shift is      0.000000000000000E+000
   GDM::PreWSS: input subspace size is                  5
   GDM::PreWSS: working subspace size set to            5
   GDM::PrEWSS: # of linearly dependent vectors =            4
   GDM::PrEWSS: Max dev from orthonormality =   6.175615574477433E-016
   GDM::BFGS:   lowest Hinv e-value    0.189577196023299     
   GDM::BFGS:   highest Hinv e-value    1.42456050068505     
   GDM::      : max scaling in EWCs is          2.66993462457502     
   GDM::      : max rotation in step is        2.757306637555798E-005
   GDM::        grad.step =  -2.507453140265781E-009
   ------- Leaving GDM -- hopefully with a step in the right direction! --------
 
    6    -491.2018590489      2.97E-05  Gap = 0.00 eV  Normal BFGS step
 
   ------------------- Entering Geometric Direct Minimization ------------------
   GDM::trust : actual energy change is        8.710685506230220E-010
   GDM::trust : predicted energy change was   -3.761179710398671E-009
   GDM::trust : updated trust radius is        0.108900000000000     
   GDM::search:  On step            1 .  The current bracket is:
       left   : x =  0.0000E+00, e =      -491.2018590489, g = -0.4345E-04
       current: x =  0.5771E-04, e =      -491.2018590480, g =  0.5853E-04
       right  : x =  0.1000E+04, e =      1000.0000000000, g =  0.1000E+04
       next   : x =  0.2142E-04
   GDM::      : max rotation in step is        1.023201538954175E-005
   ------- Leaving GDM -- hopefully with a step in the right direction! --------
 
    7    -491.2018590480      4.55E-06  Gap = 0.00 eV  Line search: overstep
 
   ------------------- Entering Geometric Direct Minimization ------------------
   GDM::trust : actual energy change is       -1.050295850291150E-009
   GDM::trust : predicted energy change was   -3.761179710398671E-009
   GDM::trust : updated trust radius is        0.108900000000000     
   GDM:         diagonal hessian shift is      0.000000000000000E+000
   GDM::PreWSS: input subspace size is                  6
   GDM::PreWSS: working subspace size set to            6
   GDM::PrEWSS: # of linearly dependent vectors =            5
   GDM::PrEWSS: Max dev from orthonormality =   7.577272143066693E-015
   GDM::BFGS:   lowest Hinv e-value    0.192556825930572     
   GDM::BFGS:   highest Hinv e-value    1.22633855390478     
   GDM::      : max scaling in EWCs is          2.66982545140207     
   GDM::      : max rotation in step is       -5.621543196222381E-006
   GDM::        grad.step =  -3.047022712189713E-010
   ------- Leaving GDM -- hopefully with a step in the right direction! --------
 
    8    -491.2018590499      8.56E-06  Gap = 0.00 eV  Normal BFGS step
 
   ------------------- Entering Geometric Direct Minimization ------------------
   GDM::trust : actual energy change is       -2.393107934040017E-010
   GDM::trust : predicted energy change was   -4.570534068284567E-010
   GDM::trust : updated trust radius is        0.330000000000000     
   GDM:         diagonal hessian shift is      0.000000000000000E+000
   GDM::PreWSS: input subspace size is                  7
   GDM::PreWSS: working subspace size set to            7
   GDM::PrEWSS: # of linearly dependent vectors =            6
   GDM::PrEWSS: Max dev from orthonormality =   1.291675100212331E-014
   GDM::BFGS:   lowest Hinv e-value    0.187401508483878     
   GDM::BFGS:   highest Hinv e-value    1.20806234614645     
   GDM::      : max scaling in EWCs is          2.66977148002772     
   GDM::      : max rotation in step is        1.194088103314373E-006
   GDM::        grad.step =  -1.613819007501310E-011
   ------- Leaving GDM -- hopefully with a step in the right direction! --------
 
    9    -491.2018590502      1.46E-06  Gap = 0.00 eV  Normal BFGS step
 
   ------------------- Entering Geometric Direct Minimization ------------------
   GDM::trust : actual energy change is       -1.466560206608847E-011
   GDM::trust : predicted energy change was   -2.420728511251965E-011
   GDM::trust : updated trust radius is        0.330000000000000     
   GDM:         diagonal hessian shift is      0.000000000000000E+000
   GDM::PreWSS: input subspace size is                  8
   GDM::PreWSS: working subspace size set to            8
   GDM::PrEWSS: # of linearly dependent vectors =            7
   GDM::PrEWSS: Max dev from orthonormality =   5.995204332975845E-015
   GDM::BFGS:   lowest Hinv e-value    0.188362234932445     
   GDM::BFGS:   highest Hinv e-value    1.24069591782004     
   GDM::      : max scaling in EWCs is          2.66977591791444     
   GDM::      : max rotation in step is       -6.095204266240812E-007
   GDM::        grad.step =  -1.416936701889829E-012
   ------- Leaving GDM -- hopefully with a step in the right direction! --------
 
   10    -491.2018590502      3.66E-07  Gap = 0.00 eV  Normal BFGS step
 
   ------------------- Entering Geometric Direct Minimization ------------------
   GDM::trust : actual energy change is        3.410605131648481E-013
   GDM::trust : predicted energy change was   -2.125405052834743E-012
   GDM::trust : updated trust radius is        0.108900000000000     
   GDM::WARNING energy changes are now smaller than effective accuracy.
   GDM::        calculation will continue, but THRESH should be increased
   GDM::        or SCF_CONVERGENCE decreased.
   GDM::        effective_thresh =   2.000000000000000E-010
   GDM:         diagonal hessian shift is      0.000000000000000E+000
   GDM::PreWSS: input subspace size is                  9
   GDM::PreWSS: working subspace size set to            9
   GDM::PrEWSS: # of linearly dependent vectors =            8
   GDM::PrEWSS: Max dev from orthonormality =   1.243102842884980E-014
   GDM::BFGS:   lowest Hinv e-value    0.187961805101526     
   GDM::BFGS:   highest Hinv e-value    1.19932180836463     
   GDM::      : max scaling in EWCs is          2.66977739546836     
   GDM::      : max rotation in step is       -2.398783320114553E-007
   GDM::        grad.step =  -2.893467899911508E-013
   ------- Leaving GDM -- hopefully with a step in the right direction! --------
 
   11    -491.2018590502      1.95E-07  Gap = 0.00 eV  Normal BFGS step
 
   ------------------- Entering Geometric Direct Minimization ------------------
   GDM::trust : actual energy change is       -4.547473508864641E-013
   GDM::trust : predicted energy change was   -4.340201849867262E-013
   GDM::trust : updated trust radius is        0.330000000000000     
   GDM:         diagonal hessian shift is      0.000000000000000E+000
   GDM::PreWSS: input subspace size is                 10
   GDM::PreWSS: working subspace size set to           10
   GDM::PrEWSS: # of linearly dependent vectors =            9
   GDM::PrEWSS: Max dev from orthonormality =   7.455841499748317E-015
   GDM::BFGS:   lowest Hinv e-value    0.187820286578184     
   GDM::BFGS:   highest Hinv e-value    1.33431069462414     
   GDM::      : max scaling in EWCs is          2.66977693449928     
   GDM::      : max rotation in step is       -1.690286849429429E-007
   GDM::        grad.step =  -4.482183327967502E-014
   ------- Leaving GDM -- hopefully with a step in the right direction! --------
 
   12    -491.2018590502      8.84E-08  Gap = 0.00 eV  Normal BFGS step
 
   ------------------- Entering Geometric Direct Minimization ------------------
   GDM::trust : actual energy change is        5.684341886080801E-014
   GDM::trust : predicted energy change was   -6.723274991951255E-014
   GDM::trust : updated trust radius is        0.108900000000000     
   GDM::WARNING energy changes are now smaller than effective accuracy.
   GDM::        calculation will continue, but THRESH should be increased
   GDM::        or SCF_CONVERGENCE decreased.
   GDM::        effective_thresh =   2.000000000000000E-010
   GDM:         diagonal hessian shift is      0.000000000000000E+000
   GDM::PreWSS: input subspace size is                 11
   GDM::PreWSS: working subspace size set to           11
   GDM::PrEWSS: # of linearly dependent vectors =           10
   GDM::PrEWSS: Max dev from orthonormality =   7.993605777301127E-015
   GDM::BFGS:   lowest Hinv e-value    0.187132744165093     
   GDM::BFGS:   highest Hinv e-value    1.71416871206069     
   GDM::      : max scaling in EWCs is          2.66977677229853     
   GDM::      : max rotation in step is       -1.164490009717633E-007
   GDM::        grad.step =  -1.491465604437861E-014
   ------- Leaving GDM -- hopefully with a step in the right direction! --------
 
   13    -491.2018590502      4.22E-08  Gap = 0.00 eV  Normal BFGS step
 
   ------------------- Entering Geometric Direct Minimization ------------------
   GDM::trust : actual energy change is        2.273736754432321E-013
   GDM::trust : predicted energy change was   -2.237198406656791E-014
   GDM::trust : updated trust radius is        0.108900000000000     
   GDM::WARNING energy changes are now smaller than effective accuracy.
   GDM::        calculation will continue, but THRESH should be increased
   GDM::        or SCF_CONVERGENCE decreased.
   GDM::        effective_thresh =   2.000000000000000E-010
   GDM:         diagonal hessian shift is      0.000000000000000E+000
   GDM::PreWSS: input subspace size is                 12
   GDM::PreWSS: working subspace size set to           12
   GDM::PrEWSS: # of linearly dependent vectors =           11
   GDM::PrEWSS: Max dev from orthonormality =   7.052691763931307E-014
   GDM::BFGS:   lowest Hinv e-value    0.186678576897152     
   GDM::BFGS:   highest Hinv e-value    2.08146872125944     
   GDM::      : max scaling in EWCs is          2.66977683517390     
   GDM::      : max rotation in step is       -8.940985443849946E-008
   GDM::        grad.step =  -1.956413375272414E-015
   ------- Leaving GDM -- hopefully with a step in the right direction! --------
 
   14    -491.2018590502      1.88E-08  Gap = 0.00 eV  Normal BFGS step
 
   ------------------- Entering Geometric Direct Minimization ------------------
   GDM::trust : actual energy change is       -2.273736754432321E-013
   GDM::trust : predicted energy change was   -2.934620062908620E-015
   GDM::trust : updated trust radius is        0.330000000000000     
   GDM:         diagonal hessian shift is      0.000000000000000E+000
   GDM::PreWSS: input subspace size is                 13
   GDM::PreWSS: working subspace size set to           13
   GDM::PrEWSS: # of linearly dependent vectors =           12
   GDM::PrEWSS: Max dev from orthonormality =   6.868811075477765E-014
   GDM::BFGS:   lowest Hinv e-value    0.186586834219397     
   GDM::BFGS:   highest Hinv e-value    2.59938706567647     
   GDM::      : max scaling in EWCs is          2.66977687271844     
   GDM::      : max rotation in step is       -2.928316852482634E-008
   GDM::        grad.step =  -1.932689202292022E-016
   ------- Leaving GDM -- hopefully with a step in the right direction! --------
 
   15    -491.2018590502      4.78E-09 Convergence criterion met
 ---------------------------------------
 One-Electron    Energy =  -904.0088611028
 Total Coulomb   Energy =   350.9320184955
 Alpha Exchange  Energy =    -3.5606304323
 Beta  Exchange  Energy =    -3.5606304323
 DFT   Exchange  Energy =   -28.4707418241
 DFT Correlation Energy =    -1.7763821509
 Nuclear Repu.   Energy =    99.2433683969
 Nuclear Attr.   Energy = -1348.7075406504
 Kinetic         Energy =   444.6986795476
 SCF time:  CPU 37.41 s  wall 6.55 s
 SCF   energy in the final basis set = -491.2018590502
 Total energy in the final basis set = -491.2018590502
 
 --------------------------------------------------------------
 
                    Orbital Energies (a.u.)
 --------------------------------------------------------------
 
 Alpha MOs
 -- Occupied --
-88.797  -7.874  -5.836  -5.833  -5.833  -2.056  -2.033  -1.287
 -1.254  -1.254  -1.236  -1.236  -1.186  -0.611  -0.266  -0.256
 -0.256  -0.207  -0.195  -0.195
 -- Virtual --
 -0.125  -0.125  -0.120  -0.073  -0.073  -0.072  -0.068  -0.068
 -0.021  -0.008  -0.008   0.032   0.032   0.035   0.050   0.070
  0.070   0.096   0.122   0.122   0.126   0.141   0.141   0.156
  0.167   0.167   0.203   0.221   0.221   0.242   0.242   0.292
  0.349   0.349   0.395   0.596   0.596   0.609   0.694   0.848
  0.848   0.895   0.910   0.910   4.579  12.079
 --------------------------------------------------------------
 
          Ground-State Mulliken Net Atomic Charges

     Atom                 Charge (a.u.)
  ----------------------------------------
      1 Zr                    0.701063
      2 Zr                   -0.145859
      3 S                    -0.555204
  ----------------------------------------
  Sum of atomic charges =     0.000000

 -----------------------------------------------------------------
                    Cartesian Multipole Moments
 -----------------------------------------------------------------
    Charge (ESU x 10^10)
                 0.0000
    Dipole Moment (Debye)
         X      -8.4356      Y       0.0072      Z       0.0000
       Tot       8.4356
    Quadrupole Moments (Debye-Ang)
        XX     -67.4391     XY       0.0271     YY     -62.4042
        XZ       0.0000     YZ       0.0000     ZZ     -62.4043
    Octopole Moments (Debye-Ang^2)
       XXX    -121.1794    XXY      -0.0252    XYY     -15.3288
       YYY       0.0156    XXZ       0.0000    XYZ       0.0000
       YYZ       0.0000    XZZ     -15.3288    YZZ       0.0052
       ZZZ       0.0000
    Hexadecapole Moments (Debye-Ang^3)
      XXXX   -1331.1276   XXXY       0.0288   XXYY    -241.8346
      XYYY       0.0897   YYYY    -144.2264   XXXZ       0.0000
      XXYZ       0.0000   XYYZ       0.0000   YYYZ       0.0000
      XXZZ    -241.8347   XYZZ       0.0299   YYZZ     -48.0754
      XZZZ       0.0000   YZZZ       0.0000   ZZZZ    -144.2262
 -----------------------------------------------------------------
 Calculating analytic gradient of the SCF energy
 Gradient of SCF Energy
            1           2           3
    1  -0.0000022  -0.0000513   0.0000535
    2  -0.0000644   0.0000313   0.0000331
    3  -0.0000000   0.0000000   0.0000000
 Max gradient component =       6.439E-05
 RMS gradient           =       3.609E-05
 Gradient time:  CPU 6.30 s  wall 1.23 s
 Geometry Optimization Parameters
   NAtoms,    NIC,     NZ,  NCons,   NDum,   NFix, NCnnct, MaxDiis
        3       9       0       0       0       0       0       0

 Cartesian Hessian Update
 Hessian Updated using BFGS Update


** GEOMETRY OPTIMIZATION IN CARTESIAN COORDINATES **
   Searching for a Minimum

   Optimization Cycle:   9

                       Coordinates (Angstroms)
     ATOM                X               Y               Z
      1  Zr        0.5857124157    0.0013736839    0.0000000000
      2  Zr       -1.7720715154   -0.0007178171    0.0000000000
      3  S         2.8470690996   -0.0011658668    0.0000000000
   Point Group: c1    Number of degrees of freedom:     3


   Energy is   -491.201859050


 Translations and Rotations Projected Out of Hessian

  3 Hessian modes will be used to form the next step
  Hessian Eigenvalues:
     0.206105    0.507920    1.013676

 Minimum Search - Taking Simple RFO Step
 Searching for Lamda that Minimizes Along All modes
 Value Taken    Lamda =   0.00000000
 Step Taken.  Stepsize is  0.000384

                             Maximum     Tolerance    Cnvgd?
         Gradient           0.000064      0.000300     YES
         Displacement       0.000267      0.001200     YES
         Energy change      0.000000      0.000001     YES


                       Distance Matrix (Angstroms)
             Zr(  1)   Zr(  2)
   Zr(  2)  2.357785
   S (  3)  2.261358  4.619141
 
 Final energy is   -491.201859050189     


 ******************************
 **  OPTIMIZATION CONVERGED  **
 ******************************

                       Coordinates (Angstroms)
     ATOM                X               Y               Z
      1  Zr        0.5857124157    0.0013736839    0.0000000000
      2  Zr       -1.7720715154   -0.0007178171    0.0000000000
      3  S         2.8470690996   -0.0011658668    0.0000000000

Z-matrix Print:
$molecule
0 1
Zr
S  1 2.261358
Zr 1 2.357785 2 179.884831
$end

 
 --------------------------------------------------------------
 
                    Orbital Energies (a.u.)
 --------------------------------------------------------------
 
 Alpha MOs
 -- Occupied --
-88.797  -7.874  -5.836  -5.833  -5.833  -2.056  -2.033  -1.287
 -1.254  -1.254  -1.236  -1.236  -1.186  -0.611  -0.266  -0.256
 -0.256  -0.207  -0.195  -0.195
 -- Virtual --
 -0.125  -0.125  -0.120  -0.073  -0.073  -0.072  -0.068  -0.068
 -0.021  -0.008  -0.008   0.032   0.032   0.035   0.050   0.070
  0.070   0.096   0.122   0.122   0.126   0.141   0.141   0.156
  0.167   0.167   0.203   0.221   0.221   0.242   0.242   0.292
  0.349   0.349   0.395   0.596   0.596   0.609   0.694   0.848
  0.848   0.895   0.910   0.910   4.579  12.079
 --------------------------------------------------------------
 
          Ground-State Mulliken Net Atomic Charges

     Atom                 Charge (a.u.)
  ----------------------------------------
      1 Zr                    0.701063
      2 Zr                   -0.145859
      3 S                    -0.555204
  ----------------------------------------
  Sum of atomic charges =     0.000000

 -----------------------------------------------------------------
                    Cartesian Multipole Moments
 -----------------------------------------------------------------
    Charge (ESU x 10^10)
                 0.0000
    Dipole Moment (Debye)
         X      -8.4356      Y       0.0072      Z       0.0000
       Tot       8.4356
    Quadrupole Moments (Debye-Ang)
        XX     -67.4391     XY       0.0271     YY     -62.4042
        XZ       0.0000     YZ       0.0000     ZZ     -62.4043
    Octopole Moments (Debye-Ang^2)
       XXX    -121.1794    XXY      -0.0252    XYY     -15.3288
       YYY       0.0156    XXZ       0.0000    XYZ       0.0000
       YYZ       0.0000    XZZ     -15.3288    YZZ       0.0052
       ZZZ       0.0000
    Hexadecapole Moments (Debye-Ang^3)
      XXXX   -1331.1276   XXXY       0.0288   XXYY    -241.8346
      XYYY       0.0897   YYYY    -144.2264   XXXZ       0.0000
      XXYZ       0.0000   XYYZ       0.0000   YYYZ       0.0000
      XXZZ    -241.8347   XYZZ       0.0299   YYZZ     -48.0754
      XZZZ       0.0000   YZZZ       0.0000   ZZZZ    -144.2262
 -----------------------------------------------------------------
Archival summary:
1\1\hpc3913\OPT\ProcedureUnspecified\BasisUnspecified\r21(+,1)\liqiuy\FriJan1719:36:022020FriJan1719:36:022020\0\\#,OPT,ProcedureUnspecified,BasisUnspecified,\\56,1\Zr\S,1,2.26136\Zr,1,2.35778,2,179.885\\\@

 Total job time:  80.35s(wall), 425.91s(cpu) 
 Fri Jan 17 19:36:02 2020

        *************************************************************
        *                                                           *
        *  Thank you very much for using Q-Chem.  Have a nice day.  *
        *                                                           *
        *************************************************************


0 sent ACK to 0 
now end server 0 ... 
cleanup process ... done
