
Running Job 1 of 2 ZrOx.in
qchem ZrOx.in_59723.0 /tmp/5732668.priya/ZrOx.save/ 1
/usr/usc/qchem/4.4/bin/mpi/mpirun_qchem -machinefile /usr/usc/qchem/4.4/bin/mpi/machines -np 1 /usr/usc/qchem/4.4/exe/qcprog.exe ZrOx.in_59723.0 /tmp/5732668.priya/ZrOx.save/

Process 0 of 1 is on hpc3447.hpcc.usc.edu - thread support 0
initial socket setup ...start
initial socket setup ...done 
now start server 0 ... 
Check license passed

                  Welcome to Q-Chem
     A Quantum Leap Into The Future Of Chemistry


 Q-Chem 4.4, Q-Chem, Inc., Pleasanton, CA (2016)

 Y. Shao,  Z. Gan,  E. Epifanovsky,  A. T. B. Gilbert,  M. Wormit,  
 J. Kussmann,  A. W. Lange,  A. Behn,  J. Deng,  X. Feng,  D. Ghosh,  
 M. Goldey,  P. R. Horn,  L. D. Jacobson,  I. Kaliman,  F.Rob,  
 R. Z. Khaliullin,  T. Kus,  A. Landau,  J. Liu,  E. I. Proynov,  Y. M. Rhee,  
 R. M. Richard,  M. A. Rohrdanz,  R. P. Steele,  E. J. Sundstrom,  
 H. L. Woodcock III,  P. M. Zimmerman,  D. Zuev,  B. Albrecht,  E. Alguire,  
 B. Austin,  S. A. Baeppler,  G. J. O. Beran,  Y. A. Bernard,  E. Berquist,  
 K. Brandhorst,  K. B. Bravaya,  S. T. Brown,  D. Casanova,  C.-M. Chang,  
 Y. Chen,  S. H. Chien,  K. D. Closser,  M. P. Coons,  D. L. Crittenden,  
 S. Dasgupta,  M. Diedenhofen,  R. A. DiStasio Jr.,  H. Do,  A. D. Dutoi,  
 R. G. Edgar,  P.-T. Fang,  S. Fatehi,  Q. Feng,  L. Fusti-Molnar,  
 A. Ghysels,  A. Golubeva-Zadorozhnaya,  J. Gomes,  A. Gunina,  
 M. W. D. Hanson-Heine,  P. H. P. Harbach,  A. W. Hauser,  E. G. Hohenstein,  
 Z. C. Holden,  K. Hui,  T.-C. Jagau,  H. Ji,  B. Kaduk,  K. Khistyaev,  
 Jaehoon Kim,  Jihan Kim,  R. A. King,  P. Klunzinger,  D. Kosenkov,  
 T. Kowalczyk,  C. M. Krauter,  A. Kunitsa,  K. U. Lao,  A. Laurent,  
 K. V. Lawler,  D. Lefrancois,  S. Lehtola,  S. V. Levchenko,  C. Y. Lin,  
 Y.-S. Lin,  F. Liu,  E. Livshits,  R. C. Lochan,  A. Luenser,  P. Manohar,  
 S. F. Manzer,  S.-P. Mao,  Y. Mao,  N. Mardirossian,  A. V. Marenich,  
 L. A. Martinez-Martinez,  S. A. Maurer,  N. J. Mayhall,  J.-M. Mewes,  
 A. F. Morrison,  K. Nanda,  C. M. Oana,  R. Olivares-Amaya,  D. P. O'Neill,  
 J. A. Parkhill,  T. M. Perrine,  R. Peverati,  P. A. Pieniazek,  F. Plasser,  
 A. Prociuk,  D. R. Rehn,  E. Rosta,  N. J. Russ,  N. Sergueev,  
 S. M. Sharada,  S. Sharma,  D. W. Small,  A. Sodt,  T. Stauch,  T. Stein,  
 D. Stuck,  Y.-C. Su,  A. J. W. Thom,  T. Tsuchimochi,  L. Vogt,  O. Vydrov,  
 T. Wang,  M. A. Watson,  J. Wenzel,  A. White,  C. F. Williams,  
 V. Vanovschi,  S. Yeganeh,  S. R. Yost,  Z.-Q. You,  I. Y. Zhang,  X. Zhang,  
 Y. Zhao,  B. R. Brooks,  G. K. L. Chan,  D. M. Chipman,  C. J. Cramer,  
 W. A. Goddard III,  M. S. Gordon,  W. J. Hehre,  A. Klamt,  
 H. F. Schaefer III,  M. W. Schmidt,  C. D. Sherrill,  D. G. Truhlar,  
 A. Warshel,  X. Xu,  A. Aspuru-Guzik,  R. Baer,  A. T. Bell,  N. A. Besley,  
 J.-D. Chai,  A. Dreuw,  B. D. Dunietz,  T. R. Furlani,  S. R. Gwaltney,  
 C.-P. Hsu,  Y. Jung,  J. Kong,  D. S. Lambrecht,  W. Liang,  C. Ochsenfeld,  
 V. A. Rassolov,  L. V. Slipchenko,  J. E. Subotnik,  T. Van Voorhis,  
 J. M. Herbert,  A. I. Krylov,  P. M. W. Gill,  M. Head-Gordon

 Contributors to earlier versions of Q-Chem not listed above: 
 R. D. Adamson,  J. Baker,  E. F. C. Byrd,  A. K. Chakraborty,  C.-L. Cheng,  
 H. Dachsel,  R. J. Doerksen,  G. Hawkins,  A. Heyden,  S. Hirata,  
 G. Kedziora,  F. J. Keil,  C. Kelley,  P. P. Korambath,  W. Kurlancheek,  
 A. M. Lee,  M. S. Lee,  D. Liotard,  I. Lotan,  P. E. Maslen,  N. Nair,  
 D. Neuhauser,  R. Olson,  B. Peters,  J. Ritchie,  N. E. Schultz,  
 N. Shenvi,  A. C. Simmonett,  K. S. Thanthiriwatte,  Q. Wu,  W. Zhang

 Please cite Q-Chem as follows:
 Y. Shao et al., Mol. Phys. 113, 184-215 (2015)
 DOI: 10.1080/00268976.2014.952696

 Q-Chem 4.4.1 for Intel X86 Linux

 Parts of Q-Chem use Armadillo 5.200.1 (Boston Tea Smuggler).
 http://arma.sourceforge.net/

 Q-Chem begins on Fri Jan 17 19:35:08 2020  

Host: 
0

     Scratch files written to /tmp/5732668.priya/ZrOx.save//
 Jul2716 11668_ 21447  21445 5558   
 Parallel job on  1  processors
Processing $rem in /usr/usc/qchem/4.4/config/preferences.
 MEM_TOTAL  2000 

Checking the input file for inconsistencies... 	...done.

--------------------------------------------------------------
User input:
--------------------------------------------------------------
$comment
--------------------------------------------------------
A SINGLE POINT DFT CALCULATION WITH BASIS SET PROJECTION
--------------------------------------------------------
$end

$molecule
0 1
Zr 0.80531 0.69268 0.00000
Zr -1.10836 -0.05556 0.00000
S 0.85130 -1.65234 0.00000
$end

$rem
JOBTYPE   SP
METHOD   B3LYP
BASIS   GEN
ECP   GEN
MAX_SCF_CYCLES   200
SCF_CONVERGENCE 8
SCF_PRINT 1
PDB_PRINT 2
THRESH 14
VARTHRESH 14
INCDFT FALSE
SYMMETRY False
Sym_ignore True
SCF_ALGORITHM GDM
XC_GRID 000128000302
DFT_D           EMPIRICAL_GRIMME3
DFT_D3_S6       1000
DFT_D3_RS6     1261
DFT_D3_S8      1703
DFT_D3_3BODY    FALSE
$end

$basis
O
6-31+G**
****
S
6-31+G**
****
Zr
LanL2DZ
****
$end

$ecp
Zr
LanL2DZ
****
$end

--------------------------------------------------------------
 ----------------------------------------------------------------
             Standard Nuclear Orientation (Angstroms)
    I     Atom           X                Y                Z
 ----------------------------------------------------------------
    1      Zr      0.8053100000     0.6926800000     0.0000000000
    2      Zr     -1.1083600000    -0.0555600000     0.0000000000
    3      S       0.8513000000    -1.6523400000     0.0000000000
 ----------------------------------------------------------------
 Nuclear Repulsion Energy =   120.5970993351 hartrees
 There are       20 alpha and       20 beta electrons

 Q-Chem warning in module /home/scratch/svnadmin/11668_zgan/qchem/forms1/BasisType.C, line 1419:

 Setting pure/cartesian flag to 2111 for general basis


 Requested basis set is non-standard
 There are 22 shells and 66 basis functions

 Total QAlloc Memory Limit   2000 MB
 Mega-Array Size        61 MB
 MEM_STATIC part        62 MB

                       Distance Matrix (Angstroms)
             Zr(  1)   Zr(  2)
   Zr(  2)  2.054750
   S (  3)  2.345471  2.527840
 
 A cutoff of  1.0D-14 yielded    253 shell pairs
 There are      2303 function pairs (      2673 Cartesian)
 
 -------------------------------------------------------
 OpenMP Integral Computing Module                       
 Release: version 1.0, May 2013, Q-Chem Inc. Pittsburgh 
 -------------------------------------------------------
 Integral Job Info:
 Integral job number is                      11
 Integral operator is                         1
 short-range coefficients                     0
 long-range coefficients              100000000
 Omega coefficients                           0
 if combine SR and LR in K                    0
 Integral screening is                        0
 Integral computing path is                   2
 max size of driver memory is            800000
 size of driver memory is                593474
 size of scratch memory is             15166112
 max col of scratch BK array               1296
 max len of scratch array in speh3          155
 max len of scratch index in speh4           18
 max int batch size is                      520
 min int batch size is                       52
 fixed nKL is                                52
 max L of basis functions is                  2
 order of int derivative is                   0
 number of shells is                         22
 number of basis is                          71
 number of cartesian basis is                71
 number of contracted shell pairs           253
 number of primitive shell pairs           1467
 maxK2 (contraction) of shell pair           36
 max number of K2 of shell pair               1
 max number of CS2 of shell pair             10
 max number of PS2 of shell pair             96
 mem total for path MDJ                   21952
 -------------------------------------------------------
 Requested basis set is non-standard
 Compound shells will be simplified
 There are 26 shells and 66 basis functions
 A cutoff of  1.0D-14 yielded    351 shell pairs
 There are      2291 function pairs (      2661 Cartesian)
 Smallest overlap matrix eigenvalue = 1.12E-03

 Scale SEOQF with 1.000000e-01/1.000000e-01/1.000000e-01

 Standard Electronic Orientation quadrupole field applied
 Nucleus-field energy     =     0.0000000048 hartrees
 Guess MOs from core Hamiltonian diagonalization
 A restricted hybrid HF-DFT SCF calculation will be
 performed using Geometric Direct Minimization
 Exchange:     0.2000 Hartree-Fock + 0.0800 Slater + 0.7200 B88
 Correlation:  0.1900 VWN1RPA + 0.8100 LYP
 Using Euler-Maclaurin-Lebedev (128,302) quadrature formula
 Dispersion:   Grimme D3
 SCF converges when RMS gradient is below 1.0E-08
 Maximum number of minimization steps = 200
 using 12 threads for integral computing 
 -------------------------------------------------------
 OpenMP BLAS3 based DFT computing Module                
 Release: version 1.0, May 2013, Q-Chem Inc. Pittsburgh 
 -------------------------------------------------------
 
   ------------------- Entering Geometric Direct Minimization ------------------
   GDM:         diagonal hessian shift is      0.000000000000000E+000
   GDM::PreWSS: input subspace size is                  1
   GDM::PreWSS: working subspace size set to            1
   GDM::PrEWSS: # of linearly dependent vectors =            0
   GDM::PrEWSS: Max dev from orthonormality =   2.220446049250313E-016
   GDM::BFGS:   lowest Hinv e-value     1.00000000000000     
   GDM::BFGS:   highest Hinv e-value    1.00000000000000     
   GDM::      : max scaling in EWCs is          1.41421356237309     
   GDM::      : max rotation in step is        0.143541511833347     
   GDM::        grad.step =   -1.54643367618042     
   ------- Leaving GDM -- hopefully with a step in the right direction! --------
 
 ---------------------------------------
  Cycle       Energy        RMS Gradient
 ---------------------------------------
    1    -449.7463646845      1.63E+00  Gap = 0.00 eV  Descent step
 
   ------------------- Entering Geometric Direct Minimization ------------------
   GDM::trust : actual energy change is        -2.87892593389404     
   GDM::trust : predicted energy change was   -0.163350000000000     
   GDM::trust : updated trust radius is        0.330000000000000     
   GDM:         diagonal hessian shift is      0.000000000000000E+000
   GDM::PreWSS: input subspace size is                  2
   GDM::PreWSS: working subspace size set to            2
   GDM::PrEWSS: # of linearly dependent vectors =            0
   GDM::PrEWSS: Max dev from orthonormality =   9.381384558082573E-015
   GDM::BFGS:   lowest Hinv e-value    0.614350219377853     
   GDM::BFGS:   highest Hinv e-value    1.51245775478243     
   GDM::      : max scaling in EWCs is          1.41421356237309     
   GDM::      : max rotation in step is        0.179241293765413     
   GDM::        grad.step =   -1.06374723737467     
   ------- Leaving GDM -- hopefully with a step in the right direction! --------
 
    2    -452.6252906184      1.24E+00  Gap = 186.17 eV  Descent step
 
   ------------------- Entering Geometric Direct Minimization ------------------
   GDM::trust : actual energy change is        -1.96735158615280     
   GDM::trust : predicted energy change was   -0.163204913718500     
   GDM::trust : updated trust radius is        0.330000000000000     
   GDM:         diagonal hessian shift is      0.000000000000000E+000
   GDM::PreWSS: input subspace size is                  3
   GDM::PreWSS: working subspace size set to            3
   GDM::PrEWSS: # of linearly dependent vectors =            0
   GDM::PrEWSS: Max dev from orthonormality =   4.253541963095131E-014
   GDM::BFGS:   lowest Hinv e-value    0.426915304509656     
   GDM::BFGS:   highest Hinv e-value    1.78902427392098     
   GDM::      : max scaling in EWCs is          1.41421356237309     
   GDM::      : max rotation in step is        0.105052605943441     
   GDM::        grad.step =  -0.846370509927814     
   ------- Leaving GDM -- hopefully with a step in the right direction! --------
 
    3    -454.5926422046      5.82E-01  Gap = 186.17 eV  Descent step
 
   ------------------- Entering Geometric Direct Minimization ------------------
   GDM::trust : actual energy change is        -1.61639248935887     
   GDM::trust : predicted energy change was   -0.148593924604099     
   GDM::trust : updated trust radius is        0.330000000000000     
   GDM:         diagonal hessian shift is      0.000000000000000E+000
   GDM::PreWSS: input subspace size is                  4
   GDM::PreWSS: working subspace size set to            4
   GDM::PrEWSS: # of linearly dependent vectors =            0
   GDM::PrEWSS: Max dev from orthonormality =   7.299577609032326E-013
   GDM::BFGS:   lowest Hinv e-value    0.236004489005388     
   GDM::BFGS:   highest Hinv e-value    3.64227793707825     
   GDM::      : max scaling in EWCs is          1.41421356237309     
   GDM::      : max rotation in step is        0.127556880675709     
   GDM::        grad.step =  -0.796961414104149     
   ------- Leaving GDM -- hopefully with a step in the right direction! --------
 
    4    -456.2090346939      6.78E-01  Gap = 186.17 eV  Descent step
 
   ------------------- Entering Geometric Direct Minimization ------------------
   GDM::trust : actual energy change is        -1.58009243944218     
   GDM::trust : predicted energy change was   -0.124893088806359     
   GDM::trust : updated trust radius is        0.330000000000000     
   GDM:         diagonal hessian shift is      0.000000000000000E+000
   GDM::PreWSS: input subspace size is                  5
   GDM::PreWSS: working subspace size set to            5
   GDM::PrEWSS: # of linearly dependent vectors =            0
   GDM::PrEWSS: Max dev from orthonormality =   3.513439539304386E-013
   GDM::BFGS:   lowest Hinv e-value    9.144371836254192E-002
   GDM::BFGS:   highest Hinv e-value    20.3195927961673     
   GDM::      : max scaling in EWCs is          1.41421356237309     
   GDM::      : max rotation in step is        9.759680306376320E-002
   GDM::        grad.step =  -0.827956050285407     
   ------- Leaving GDM -- hopefully with a step in the right direction! --------
 
    5    -457.7891271334      8.04E-01  Gap = 186.17 eV  Descent step
 
   ------------------- Entering Geometric Direct Minimization ------------------
   GDM::trust : actual energy change is        -1.67550270666192     
   GDM::trust : predicted energy change was   -0.131885170468774     
   GDM::trust : updated trust radius is        0.330000000000000     
   GDM::search:  On step            1 .  The current bracket is:
       left   : x =  0.0000E+00, e =      -457.7891271334, g = -0.4098E+01
       current: x =  0.2020E+00, e =      -459.4646298400, g = -0.4162E+01
       right  : x =  0.1000E+04, e =      1000.0000000000, g =  0.1000E+04
       next   : x =  0.2020E+01
   GDM::      : max rotation in step is        0.975968030637632     
   ------- Leaving GDM -- hopefully with a step in the right direction! --------
 
    6    -459.4646298400      3.91E-01  Gap = 186.17 eV  Line search: understep
 
   ------------------- Entering Geometric Direct Minimization ------------------
   GDM::trust : actual energy change is        -10.9679029878214     
   GDM::trust : predicted energy change was   -0.131885170468774     
   GDM::trust : updated trust radius is        0.330000000000000     
   GDM:         diagonal hessian shift is      0.000000000000000E+000
   GDM::PreWSS: input subspace size is                  6
   GDM::PreWSS: working subspace size set to            6
   GDM::PrEWSS: # of linearly dependent vectors =            0
   GDM::PrEWSS: Max dev from orthonormality =   2.632269402447207E-012
   GDM::BFGS:   lowest Hinv e-value    0.171291046660630     
   GDM::BFGS:   highest Hinv e-value    4.23198781068483     
   GDM::      : max scaling in EWCs is          1.41421356237309     
   GDM::      : max rotation in step is       -0.163400950132712     
   GDM::        grad.step =   -1.57893152571633     
   ------- Leaving GDM -- hopefully with a step in the right direction! --------
 
    7    -468.7570301212      2.02E+00  Gap = 186.17 eV  Descent step
 
   ------------------- Entering Geometric Direct Minimization ------------------
   GDM::trust : actual energy change is        -2.89331373263445     
   GDM::trust : predicted energy change was   -0.348845966319131     
   GDM::trust : updated trust radius is        0.330000000000000     
   GDM:         diagonal hessian shift is      0.000000000000000E+000
   GDM::PreWSS: input subspace size is                  7
   GDM::PreWSS: working subspace size set to            7
   GDM::PrEWSS: # of linearly dependent vectors =            0
   GDM::PrEWSS: Max dev from orthonormality =   7.718999051053999E-013
   GDM::BFGS:   lowest Hinv e-value    0.438641393954812     
   GDM::BFGS:   highest Hinv e-value    3.20579633079799     
   GDM::      : max scaling in EWCs is          1.41421356237309     
   GDM::      : max rotation in step is        8.427199617226881E-002
   GDM::        grad.step =   -1.08506209944687     
   ------- Leaving GDM -- hopefully with a step in the right direction! --------
 
    8    -471.6503438538      9.17E-01  Gap = 186.17 eV  Descent step
 
   ------------------- Entering Geometric Direct Minimization ------------------
   GDM::trust : actual energy change is        -2.06108613035985     
   GDM::trust : predicted energy change was   -0.176063679154670     
   GDM::trust : updated trust radius is        0.330000000000000     
   GDM:         diagonal hessian shift is      0.000000000000000E+000
   GDM::PreWSS: input subspace size is                  8
   GDM::PreWSS: working subspace size set to            8
   GDM::PrEWSS: # of linearly dependent vectors =            0
   GDM::PrEWSS: Max dev from orthonormality =   1.618566392025400E-012
   GDM::BFGS:   lowest Hinv e-value    0.369511670507424     
   GDM::BFGS:   highest Hinv e-value    3.37651126245198     
   GDM::      : max scaling in EWCs is          1.41421356237309     
   GDM::      : max rotation in step is        0.103288404325403     
   GDM::        grad.step =   -1.03068010268948     
   ------- Leaving GDM -- hopefully with a step in the right direction! --------
 
    9    -473.7114299842      9.03E-01  Gap = 186.17 eV  Descent step
 
   ------------------- Entering Geometric Direct Minimization ------------------
   GDM::trust : actual energy change is        -1.97953494172702     
   GDM::trust : predicted energy change was   -0.143123753230302     
   GDM::trust : updated trust radius is        0.330000000000000     
   GDM:         diagonal hessian shift is      0.000000000000000E+000
   GDM::PreWSS: input subspace size is                  9
   GDM::PreWSS: working subspace size set to            9
   GDM::PrEWSS: # of linearly dependent vectors =            0
   GDM::PrEWSS: Max dev from orthonormality =   2.113031971617829E-012
   GDM::BFGS:   lowest Hinv e-value    0.271128536199122     
   GDM::BFGS:   highest Hinv e-value    3.66246197411371     
   GDM::      : max scaling in EWCs is          1.41421356237309     
   GDM::      : max rotation in step is       -0.128455900998085     
   GDM::        grad.step =   -1.10494682839253     
   ------- Leaving GDM -- hopefully with a step in the right direction! --------
 
   10    -475.6909649259      1.34E+00  Gap = 186.17 eV  Descent step
 
   ------------------- Entering Geometric Direct Minimization ------------------
   GDM::trust : actual energy change is        -2.08175965456405     
   GDM::trust : predicted energy change was   -0.147342549957954     
   GDM::trust : updated trust radius is        0.330000000000000     
   GDM:         diagonal hessian shift is      0.000000000000000E+000
   GDM::PreWSS: input subspace size is                 10
   GDM::PreWSS: working subspace size set to           10
   GDM::PrEWSS: # of linearly dependent vectors =            0
   GDM::PrEWSS: Max dev from orthonormality =   2.121726405679425E-012
   GDM::BFGS:   lowest Hinv e-value    0.220229004659838     
   GDM::BFGS:   highest Hinv e-value    3.72355428002439     
   GDM::      : max scaling in EWCs is          1.41421356237309     
   GDM::      : max rotation in step is       -0.187107330143484     
   GDM::        grad.step =   -1.03091496424095     
   ------- Leaving GDM -- hopefully with a step in the right direction! --------
 
   11    -477.7727245805      1.25E+00  Gap = 186.17 eV  Descent step
 
   ------------------- Entering Geometric Direct Minimization ------------------
   GDM::trust : actual energy change is        -1.91488437320908     
   GDM::trust : predicted energy change was   -0.160118905930449     
   GDM::trust : updated trust radius is        0.330000000000000     
   GDM:         diagonal hessian shift is      0.000000000000000E+000
   GDM::PreWSS: input subspace size is                 11
   GDM::PreWSS: working subspace size set to           11
   GDM::PrEWSS: # of linearly dependent vectors =            0
   GDM::PrEWSS: Max dev from orthonormality =   2.983453761817856E-012
   GDM::BFGS:   lowest Hinv e-value    0.199104735325132     
   GDM::BFGS:   highest Hinv e-value    3.90546577852600     
   GDM::      : max scaling in EWCs is          1.41421356237309     
   GDM::      : max rotation in step is       -0.149452816555131     
   GDM::        grad.step =  -0.865800407233375     
   ------- Leaving GDM -- hopefully with a step in the right direction! --------
 
   12    -479.6876089537      1.23E+00  Gap = 186.17 eV  Descent step
 
   ------------------- Entering Geometric Direct Minimization ------------------
   GDM::trust : actual energy change is        -1.66269471435515     
   GDM::trust : predicted energy change was   -0.153319512258604     
   GDM::trust : updated trust radius is        0.330000000000000     
   GDM:         diagonal hessian shift is      0.000000000000000E+000
   GDM::PreWSS: input subspace size is                 12
   GDM::PreWSS: working subspace size set to           12
   GDM::PrEWSS: # of linearly dependent vectors =            0
   GDM::PrEWSS: Max dev from orthonormality =   2.946101695933123E-012
   GDM::BFGS:   lowest Hinv e-value    0.131555170098463     
   GDM::BFGS:   highest Hinv e-value    7.65151349411698     
   GDM::      : max scaling in EWCs is          2.82842712474619     
   GDM::      : max rotation in step is       -0.712943692588135     
   GDM::        grad.step =   -1.34434331798324     
   ------- Leaving GDM -- hopefully with a step in the right direction! --------
 
   13    -481.3503036680      3.21E+00  Gap = 186.17 eV  Descent step
 
   ------------------- Entering Geometric Direct Minimization ------------------
   GDM::trust : actual energy change is        -2.05251520097619     
   GDM::trust : predicted energy change was   -0.260946114597869     
   GDM::trust : updated trust radius is        0.330000000000000     
   GDM:         diagonal hessian shift is      0.000000000000000E+000
   GDM::PreWSS: input subspace size is                 13
   GDM::PreWSS: working subspace size set to           13
   GDM::PrEWSS: # of linearly dependent vectors =            0
   GDM::PrEWSS: Max dev from orthonormality =   2.031146084657820E-012
   GDM::BFGS:   lowest Hinv e-value    0.187333405198538     
   GDM::BFGS:   highest Hinv e-value    4.50361262332699     
   GDM::      : max scaling in EWCs is          2.82842712474619     
   GDM::      : max rotation in step is        0.200407818929566     
   GDM::        grad.step =  -0.738287697016685     
   ------- Leaving GDM -- hopefully with a step in the right direction! --------
 
   14    -483.4028188690      9.38E-01  Gap = 186.17 eV  Descent step
 
   ------------------- Entering Geometric Direct Minimization ------------------
   GDM::trust : actual energy change is        -1.33703198312918     
   GDM::trust : predicted energy change was   -0.156169061101969     
   GDM::trust : updated trust radius is        0.330000000000000     
   GDM:         diagonal hessian shift is      0.000000000000000E+000
   GDM::PreWSS: input subspace size is                 14
   GDM::PreWSS: working subspace size set to           14
   GDM::PrEWSS: # of linearly dependent vectors =            0
   GDM::PrEWSS: Max dev from orthonormality =   6.566490406978431E-012
   GDM::BFGS:   lowest Hinv e-value    0.168754995508359     
   GDM::BFGS:   highest Hinv e-value    4.76382225882834     
   GDM::      : max scaling in EWCs is          2.82842712474619     
   GDM::      : max rotation in step is        0.273003699945997     
   GDM::        grad.step =  -0.846159331052214     
   ------- Leaving GDM -- hopefully with a step in the right direction! --------
 
   15    -484.7398508521      1.35E+00  Gap = 186.17 eV  Descent step
 
   ------------------- Entering Geometric Direct Minimization ------------------
   GDM::trust : actual energy change is        -1.48393738985760     
   GDM::trust : predicted energy change was   -0.167754050335649     
   GDM::trust : updated trust radius is        0.330000000000000     
   GDM:         diagonal hessian shift is      0.000000000000000E+000
   GDM::PreWSS: input subspace size is                 15
   GDM::PreWSS: working subspace size set to           15
   GDM::PrEWSS: # of linearly dependent vectors =            0
   GDM::PrEWSS: Max dev from orthonormality =   1.034881208505922E-011
   GDM::BFGS:   lowest Hinv e-value    0.140629265176591     
   GDM::BFGS:   highest Hinv e-value    4.94545305988348     
   GDM::      : max scaling in EWCs is          2.82842712474619     
   GDM::      : max rotation in step is        0.375015501141431     
   GDM::        grad.step =  -0.843558279526215     
   ------- Leaving GDM -- hopefully with a step in the right direction! --------
 
   16    -486.2237882420      1.34E+00  Gap = 186.17 eV  Descent step
 
   ------------------- Entering Geometric Direct Minimization ------------------
   GDM::trust : actual energy change is        -1.36853518432758     
   GDM::trust : predicted energy change was   -0.206179738079333     
   GDM::trust : updated trust radius is        0.330000000000000     
   GDM:         diagonal hessian shift is      0.000000000000000E+000
   GDM::PreWSS: input subspace size is                 16
   GDM::PreWSS: working subspace size set to           16
   GDM::PrEWSS: # of linearly dependent vectors =            0
   GDM::PrEWSS: Max dev from orthonormality =   5.463730162746927E-012
   GDM::BFGS:   lowest Hinv e-value    9.346380015347133E-002
   GDM::BFGS:   highest Hinv e-value    5.32068508993060     
   GDM::      : max scaling in EWCs is          2.82842712474619     
   GDM::      : max rotation in step is       -0.226330577048508     
   GDM::        grad.step =  -0.629141978662340     
   ------- Leaving GDM -- hopefully with a step in the right direction! --------
 
   17    -487.5923234263      4.83E-01  Gap = 186.17 eV  Descent step
 
   ------------------- Entering Geometric Direct Minimization ------------------
   GDM::trust : actual energy change is        -1.16645094070122     
   GDM::trust : predicted energy change was   -0.196866113139511     
   GDM::trust : updated trust radius is        0.330000000000000     
   GDM:         diagonal hessian shift is      0.000000000000000E+000
   GDM::PreWSS: input subspace size is                 17
   GDM::PreWSS: working subspace size set to           17
   GDM::PrEWSS: # of linearly dependent vectors =            0
   GDM::PrEWSS: Max dev from orthonormality =   5.425854210372449E-012
   GDM::BFGS:   lowest Hinv e-value    0.147666838883068     
   GDM::BFGS:   highest Hinv e-value    4.88276821259510     
   GDM::      : max scaling in EWCs is          2.82842712474619     
   GDM::      : max rotation in step is        0.349108826289467     
   GDM::        grad.step =  -0.540349388878240     
   ------- Leaving GDM -- hopefully with a step in the right direction! --------
 
   18    -488.7587743670      6.13E-01  Gap = 186.17 eV  Descent step
 
   ------------------- Entering Geometric Direct Minimization ------------------
   GDM::trust : actual energy change is       -0.893178524023767     
   GDM::trust : predicted energy change was   -0.152411986185513     
   GDM::trust : updated trust radius is        0.330000000000000     
   GDM:         diagonal hessian shift is      0.000000000000000E+000
   GDM::PreWSS: input subspace size is                 18
   GDM::PreWSS: working subspace size set to           18
   GDM::PrEWSS: # of linearly dependent vectors =            0
   GDM::PrEWSS: Max dev from orthonormality =   3.063754111520822E-012
   GDM::BFGS:   lowest Hinv e-value    0.132432635592426     
   GDM::BFGS:   highest Hinv e-value    4.53495990214974     
   GDM::      : max scaling in EWCs is          2.82842712474619     
   GDM::      : max rotation in step is       -0.218323313000462     
   GDM::        grad.step =  -0.388783309436165     
   ------- Leaving GDM -- hopefully with a step in the right direction! --------
 
   19    -489.6519528911      3.07E-01  Gap = 186.17 eV  Descent step
 
   ------------------- Entering Geometric Direct Minimization ------------------
   GDM::trust : actual energy change is       -0.583332183713708     
   GDM::trust : predicted energy change was   -0.190899697800561     
   GDM::trust : updated trust radius is        0.330000000000000     
   GDM:         diagonal hessian shift is      0.000000000000000E+000
   GDM::PreWSS: input subspace size is                 19
   GDM::PreWSS: working subspace size set to           18
   GDM::PrEWSS: # of linearly dependent vectors =            0
   GDM::PrEWSS: Max dev from orthonormality =   8.893701747281213E-012
   GDM::BFGS:   lowest Hinv e-value    0.160249781139193     
   GDM::BFGS:   highest Hinv e-value    4.89675889306817     
   GDM::      : max scaling in EWCs is          2.82842712474619     
   GDM::      : max rotation in step is       -0.299889261859336     
   GDM::        grad.step =  -0.278433101190131     
   ------- Leaving GDM -- hopefully with a step in the right direction! --------
 
   20    -490.2352850748      2.71E-01  Gap = 186.17 eV  Descent step
 
   ------------------- Entering Geometric Direct Minimization ------------------
   GDM::trust : actual energy change is       -0.195814711227683     
   GDM::trust : predicted energy change was   -0.220693910460590     
   GDM::trust : updated trust radius is        0.330000000000000     
   GDM:         diagonal hessian shift is      0.000000000000000E+000
   GDM::PreWSS: input subspace size is                 19
   GDM::PreWSS: working subspace size set to           18
   GDM::PrEWSS: # of linearly dependent vectors =            0
   GDM::PrEWSS: Max dev from orthonormality =   3.281444560521152E-012
   GDM::BFGS:   lowest Hinv e-value    0.132013185799436     
   GDM::BFGS:   highest Hinv e-value    6.39229112624233     
   GDM::      : max scaling in EWCs is          2.82842712474619     
   GDM::      : max rotation in step is        0.437106942942569     
   GDM::        grad.step =  -0.378607550857539     
   ------- Leaving GDM -- hopefully with a step in the right direction! --------
 
   21    -490.4310997860      6.26E-01  Gap = 186.17 eV  Descent step
 
   ------------------- Entering Geometric Direct Minimization ------------------
   GDM::trust : actual energy change is       -0.115162924613003     
   GDM::trust : predicted energy change was   -0.420823376240821     
   GDM::trust : updated trust radius is        0.330000000000000     
   GDM:         diagonal hessian shift is      0.000000000000000E+000
   GDM::PreWSS: input subspace size is                 19
   GDM::PreWSS: working subspace size set to           18
   GDM::PrEWSS: # of linearly dependent vectors =            0
   GDM::PrEWSS: Max dev from orthonormality =   2.735046564228405E-012
   GDM::BFGS:   lowest Hinv e-value    9.656962167728712E-002
   GDM::BFGS:   highest Hinv e-value    9.41338361988321     
   GDM::      : max scaling in EWCs is          2.82842712474619     
   GDM::      : max rotation in step is       -0.355418686248739     
   GDM::        grad.step =  -0.400193812141599     
   ------- Leaving GDM -- hopefully with a step in the right direction! --------
 
   22    -490.5462627106      5.14E-01  Gap = 186.17 eV  Descent step
 
   ------------------- Entering Geometric Direct Minimization ------------------
   GDM::trust : actual energy change is        7.543677945454874E-002
   GDM::trust : predicted energy change was   -0.577477659579234     
   GDM::trust : updated trust radius is        0.108900000000000     
   GDM::search:  On step            1 .  The current bracket is:
       left   : x =  0.0000E+00, e =      -490.5462627106, g = -0.5467E+00
       current: x =  0.7320E+00, e =      -490.4708259312, g =  0.7236E+00
       right  : x =  0.1000E+04, e =      1000.0000000000, g =  0.1000E+04
       next   : x =  0.3079E+00
   GDM::      : max rotation in step is       -0.149523980868133     
   ------- Leaving GDM -- hopefully with a step in the right direction! --------
 
   23    -490.4708259312      9.84E-02  Gap = 186.17 eV  Line search: overstep
 
   ------------------- Entering Geometric Direct Minimization ------------------
   GDM::trust : actual energy change is       -0.203587977122254     
   GDM::trust : predicted energy change was   -0.577477659579234     
   GDM::trust : updated trust radius is        0.108900000000000     
   GDM:         diagonal hessian shift is      0.000000000000000E+000
   GDM::PreWSS: input subspace size is                 19
   GDM::PreWSS: working subspace size set to           18
   GDM::PrEWSS: # of linearly dependent vectors =            0
   GDM::PrEWSS: Max dev from orthonormality =   5.046976725431307E-012
   GDM::BFGS:   lowest Hinv e-value    0.169220339673899     
   GDM::BFGS:   highest Hinv e-value    4.19760447400446     
   GDM::      : max scaling in EWCs is          2.82842712474619     
   GDM::      : max rotation in step is        0.172080641385343     
   GDM::        grad.step =  -6.047120117000580E-002
   ------- Leaving GDM -- hopefully with a step in the right direction! --------
 
   24    -490.7498506877      3.10E-01  Gap = -980.16 eV  Descent step
 
   ------------------- Entering Geometric Direct Minimization ------------------
   GDM::trust : actual energy change is       -0.102222564264594     
   GDM::trust : predicted energy change was   -2.019259512560171E-002
   GDM::trust : updated trust radius is        0.330000000000000     
   GDM:         diagonal hessian shift is      0.000000000000000E+000
   GDM::PreWSS: input subspace size is                 19
   GDM::PreWSS: working subspace size set to           18
   GDM::PrEWSS: # of linearly dependent vectors =            0
   GDM::PrEWSS: Max dev from orthonormality =   2.996974196589619E-012
   GDM::BFGS:   lowest Hinv e-value    0.115290888758894     
   GDM::BFGS:   highest Hinv e-value    4.19472551087626     
   GDM::      : max scaling in EWCs is          2.82842712474619     
   GDM::      : max rotation in step is       -0.614536321371395     
   GDM::        grad.step =  -0.174295349870437     
   ------- Leaving GDM -- hopefully with a step in the right direction! --------
 
   25    -490.8520732520      3.48E-01  Gap = -980.16 eV  Descent step
 
   ------------------- Entering Geometric Direct Minimization ------------------
   GDM::trust : actual energy change is       -0.254233385338637     
   GDM::trust : predicted energy change was   -0.229434417390341     
   GDM::trust : updated trust radius is        0.330000000000000     
   GDM:         diagonal hessian shift is      0.000000000000000E+000
   GDM::PreWSS: input subspace size is                 19
   GDM::PreWSS: working subspace size set to           18
   GDM::PrEWSS: # of linearly dependent vectors =            0
   GDM::PrEWSS: Max dev from orthonormality =   8.870265633120766E-013
   GDM::BFGS:   lowest Hinv e-value    0.212461959843183     
   GDM::BFGS:   highest Hinv e-value    5.79240803969525     
   GDM::      : max scaling in EWCs is          2.82842712474619     
   GDM::      : max rotation in step is       -0.478784851014479     
   GDM::        grad.step =  -0.169957117707094     
   ------- Leaving GDM -- hopefully with a step in the right direction! --------
 
   26    -491.1063066373      2.64E-01  Gap = -980.16 eV  Descent step
 
   ------------------- Entering Geometric Direct Minimization ------------------
   GDM::trust : actual energy change is        0.260877057941684     
   GDM::trust : predicted energy change was   -0.221007073076646     
   GDM::trust : updated trust radius is        0.108900000000000     
   GDM::search:  On step            1 .  The current bracket is:
       left   : x =  0.0000E+00, e =      -491.1063066373, g = -0.2442E+00
       current: x =  0.6960E+00, e =      -490.8454295794, g =  0.5891E+00
       right  : x =  0.1000E+04, e =      1000.0000000000, g =  0.1000E+04
       next   : x =  0.1373E+00
   GDM::      : max rotation in step is       -9.443644199964500E-002
   ------- Leaving GDM -- hopefully with a step in the right direction! --------
 
   27    -490.8454295794      2.92E-02  Gap = -980.16 eV  Line search: overstep
 
   ------------------- Entering Geometric Direct Minimization ------------------
   GDM::trust : actual energy change is       -4.594265769793537E-002
   GDM::trust : predicted energy change was   -0.221007073076646     
   GDM::trust : updated trust radius is        0.108900000000000     
   GDM:         diagonal hessian shift is      0.000000000000000E+000
   GDM::PreWSS: input subspace size is                 19
   GDM::PreWSS: working subspace size set to           18
   GDM::PrEWSS: # of linearly dependent vectors =            0
   GDM::PrEWSS: Max dev from orthonormality =   1.530983673170283E-012
   GDM::BFGS:   lowest Hinv e-value    0.176648566098556     
   GDM::BFGS:   highest Hinv e-value    4.26905057042895     
   GDM::      : max scaling in EWCs is          2.82842712474619     
   GDM::      : max rotation in step is       -0.111282694110021     
   GDM::        grad.step =  -2.288214795629768E-002
   ------- Leaving GDM -- hopefully with a step in the right direction! --------
 
   28    -491.1522492950      1.20E-01  Gap = -980.16 eV  Descent step
 
   ------------------- Entering Geometric Direct Minimization ------------------
   GDM::trust : actual energy change is       -3.008564641703515E-002
   GDM::trust : predicted energy change was   -1.766193306040170E-002
   GDM::trust : updated trust radius is        0.330000000000000     
   GDM:         diagonal hessian shift is      0.000000000000000E+000
   GDM::PreWSS: input subspace size is                 19
   GDM::PreWSS: working subspace size set to           18
   GDM::PrEWSS: # of linearly dependent vectors =            0
   GDM::PrEWSS: Max dev from orthonormality =   3.639727408355498E-013
   GDM::BFGS:   lowest Hinv e-value    0.188147595765919     
   GDM::BFGS:   highest Hinv e-value    4.04427982348976     
   GDM::      : max scaling in EWCs is          2.82842712474619     
   GDM::      : max rotation in step is       -0.319989153626944     
   GDM::        grad.step =  -3.398265709663562E-002
   ------- Leaving GDM -- hopefully with a step in the right direction! --------
 
   29    -491.1823349415      5.54E-02  Gap = -980.16 eV  Normal BFGS step
 
   ------------------- Entering Geometric Direct Minimization ------------------
   GDM::trust : actual energy change is        9.609300988074665E-003
   GDM::trust : predicted energy change was   -5.097398564495342E-002
   GDM::trust : updated trust radius is        0.108900000000000     
   GDM::search:  On step            1 .  The current bracket is:
       left   : x =  0.0000E+00, e =      -491.1823349415, g = -0.6836E-01
       current: x =  0.4971E+00, e =      -491.1727256405, g =  0.8944E-01
       right  : x =  0.1000E+04, e =      1000.0000000000, g =  0.1000E+04
       next   : x =  0.1938E+00
   GDM::      : max rotation in step is       -0.124725776956566     
   ------- Leaving GDM -- hopefully with a step in the right direction! --------
 
   30    -491.1727256405      5.34E-03  Gap = -980.16 eV  Line search: overstep
 
   ------------------- Entering Geometric Direct Minimization ------------------
   GDM::trust : actual energy change is       -1.490561731378648E-002
   GDM::trust : predicted energy change was   -5.097398564495342E-002
   GDM::trust : updated trust radius is        0.108900000000000     
   GDM:         diagonal hessian shift is      0.000000000000000E+000
   GDM::PreWSS: input subspace size is                 19
   GDM::PreWSS: working subspace size set to           18
   GDM::PrEWSS: # of linearly dependent vectors =            0
   GDM::PrEWSS: Max dev from orthonormality =   3.663042091872626E-013
   GDM::BFGS:   lowest Hinv e-value    0.186110142937724     
   GDM::BFGS:   highest Hinv e-value    3.95546037765492     
   GDM::trust : dogleg step length is          0.108900000000000     
   GDM::      : max scaling in EWCs is          2.82842712474619     
   GDM::      : max rotation in step is        0.121042197428254     
   GDM::        grad.step =  -7.394693786949660E-003
   ------- Leaving GDM -- hopefully with a step in the right direction! --------
 
   31    -491.1972405588      3.48E-02  Gap = -980.16 eV  Dog-leg BFGS step
 
   ------------------- Entering Geometric Direct Minimization ------------------
   GDM::trust : actual energy change is       -3.425415198762494E-003
   GDM::trust : predicted energy change was   -1.095452043114736E-002
   GDM::trust : updated trust radius is        0.108900000000000     
   GDM:         diagonal hessian shift is      0.000000000000000E+000
   GDM::PreWSS: input subspace size is                 19
   GDM::PreWSS: working subspace size set to           18
   GDM::PrEWSS: # of linearly dependent vectors =            0
   GDM::PrEWSS: Max dev from orthonormality =   1.960515083609948E-012
   GDM::BFGS:   lowest Hinv e-value    0.179558899189264     
   GDM::BFGS:   highest Hinv e-value    3.99160154757785     
   GDM::      : max scaling in EWCs is          2.82842712474619     
   GDM::      : max rotation in step is        3.519250309972453E-002
   GDM::        grad.step =  -3.846100082288896E-003
   ------- Leaving GDM -- hopefully with a step in the right direction! --------
 
   32    -491.2006659740      2.81E-02  Gap = -980.16 eV  Normal BFGS step
 
   ------------------- Entering Geometric Direct Minimization ------------------
   GDM::trust : actual energy change is       -2.352733785073724E-003
   GDM::trust : predicted energy change was   -5.769150123433346E-003
   GDM::trust : updated trust radius is        0.330000000000000     
   GDM:         diagonal hessian shift is      0.000000000000000E+000
   GDM::PreWSS: input subspace size is                 19
   GDM::PreWSS: working subspace size set to           18
   GDM::PrEWSS: # of linearly dependent vectors =            0
   GDM::PrEWSS: Max dev from orthonormality =   1.694609730318319E-012
   GDM::BFGS:   lowest Hinv e-value    0.181557265113100     
   GDM::BFGS:   highest Hinv e-value    4.05480495749702     
   GDM::      : max scaling in EWCs is          2.82842712474619     
   GDM::      : max rotation in step is        3.063522242215090E-002
   GDM::        grad.step =  -2.311015059135798E-003
   ------- Leaving GDM -- hopefully with a step in the right direction! --------
 
   33    -491.2030187078      1.76E-02  Gap = -980.16 eV  Normal BFGS step
 
   ------------------- Entering Geometric Direct Minimization ------------------
   GDM::trust : actual energy change is       -5.559544956099671E-004
   GDM::trust : predicted energy change was   -3.466522588703698E-003
   GDM::trust : updated trust radius is        0.330000000000000     
   GDM:         diagonal hessian shift is      0.000000000000000E+000
   GDM::PreWSS: input subspace size is                 19
   GDM::PreWSS: working subspace size set to           18
   GDM::PrEWSS: # of linearly dependent vectors =            0
   GDM::PrEWSS: Max dev from orthonormality =   1.193489751472043E-012
   GDM::BFGS:   lowest Hinv e-value    0.179968435247500     
   GDM::BFGS:   highest Hinv e-value    3.77216162472738     
   GDM::      : max scaling in EWCs is          2.82842712474619     
   GDM::      : max rotation in step is        5.991253876860312E-002
   GDM::        grad.step =  -1.858137409876810E-003
   ------- Leaving GDM -- hopefully with a step in the right direction! --------
 
   34    -491.2035746622      2.27E-02  Gap = -980.16 eV  Normal BFGS step
 
   ------------------- Entering Geometric Direct Minimization ------------------
   GDM::trust : actual energy change is       -1.470545312201921E-003
   GDM::trust : predicted energy change was   -2.787206114815214E-003
   GDM::trust : updated trust radius is        0.330000000000000     
   GDM:         diagonal hessian shift is      0.000000000000000E+000
   GDM::PreWSS: input subspace size is                 19
   GDM::PreWSS: working subspace size set to           18
   GDM::PrEWSS: # of linearly dependent vectors =            0
   GDM::PrEWSS: Max dev from orthonormality =   1.061019327952550E-012
   GDM::BFGS:   lowest Hinv e-value    0.177915526960728     
   GDM::BFGS:   highest Hinv e-value    3.56145649277272     
   GDM::      : max scaling in EWCs is          2.82842712474619     
   GDM::      : max rotation in step is        7.055573751854102E-002
   GDM::        grad.step =  -1.165908638692383E-003
   ------- Leaving GDM -- hopefully with a step in the right direction! --------
 
   35    -491.2050452076      1.56E-02  Gap = -980.16 eV  Normal BFGS step
 
   ------------------- Entering Geometric Direct Minimization ------------------
   GDM::trust : actual energy change is       -7.400314088954474E-004
   GDM::trust : predicted energy change was   -1.748862958038575E-003
   GDM::trust : updated trust radius is        0.330000000000000     
   GDM:         diagonal hessian shift is      0.000000000000000E+000
   GDM::PreWSS: input subspace size is                 19
   GDM::PreWSS: working subspace size set to           18
   GDM::PrEWSS: # of linearly dependent vectors =            0
   GDM::PrEWSS: Max dev from orthonormality =   1.060390490692509E-012
   GDM::BFGS:   lowest Hinv e-value    0.173322276959024     
   GDM::BFGS:   highest Hinv e-value    3.08190774282799     
   GDM::      : max scaling in EWCs is          2.82842712474619     
   GDM::      : max rotation in step is        7.205452950964955E-002
   GDM::        grad.step =  -8.604595790122559E-004
   ------- Leaving GDM -- hopefully with a step in the right direction! --------
 
   36    -491.2057852390      1.16E-02  Gap = -980.16 eV  Normal BFGS step
 
   ------------------- Entering Geometric Direct Minimization ------------------
   GDM::trust : actual energy change is       -1.059469672270552E-003
   GDM::trust : predicted energy change was   -1.290689368518384E-003
   GDM::trust : updated trust radius is        0.330000000000000     
   GDM:         diagonal hessian shift is      0.000000000000000E+000
   GDM::PreWSS: input subspace size is                 19
   GDM::PreWSS: working subspace size set to           18
   GDM::PrEWSS: # of linearly dependent vectors =            0
   GDM::PrEWSS: Max dev from orthonormality =   5.540463920983285E-013
   GDM::BFGS:   lowest Hinv e-value    0.172919136986264     
   GDM::BFGS:   highest Hinv e-value    4.78549567041306     
   GDM::      : max scaling in EWCs is          2.82842712474619     
   GDM::      : max rotation in step is        0.105977646454286     
   GDM::        grad.step =  -5.377328163575437E-004
   ------- Leaving GDM -- hopefully with a step in the right direction! --------
 
   37    -491.2068447086      7.64E-03  Gap = -980.16 eV  Normal BFGS step
 
   ------------------- Entering Geometric Direct Minimization ------------------
   GDM::trust : actual energy change is       -6.579063081062486E-004
   GDM::trust : predicted energy change was   -8.065992245363156E-004
   GDM::trust : updated trust radius is        0.330000000000000     
   GDM:         diagonal hessian shift is      0.000000000000000E+000
   GDM::PreWSS: input subspace size is                 19
   GDM::PreWSS: working subspace size set to           18
   GDM::PrEWSS: # of linearly dependent vectors =            0
   GDM::PrEWSS: Max dev from orthonormality =   4.011985188512313E-012
   GDM::BFGS:   lowest Hinv e-value    0.169426444709378     
   GDM::BFGS:   highest Hinv e-value    6.90078917474750     
   GDM::      : max scaling in EWCs is          2.82842712474619     
   GDM::      : max rotation in step is        7.081067893270886E-002
   GDM::        grad.step =  -2.463406129038827E-004
   ------- Leaving GDM -- hopefully with a step in the right direction! --------
 
   38    -491.2075026149      4.24E-03  Gap = -980.16 eV  Normal BFGS step
 
   ------------------- Entering Geometric Direct Minimization ------------------
   GDM::trust : actual energy change is       -2.244981482135699E-004
   GDM::trust : predicted energy change was   -3.695109193558240E-004
   GDM::trust : updated trust radius is        0.330000000000000     
   GDM:         diagonal hessian shift is      0.000000000000000E+000
   GDM::PreWSS: input subspace size is                 19
   GDM::PreWSS: working subspace size set to           18
   GDM::PrEWSS: # of linearly dependent vectors =            0
   GDM::PrEWSS: Max dev from orthonormality =   1.676610239531584E-012
   GDM::BFGS:   lowest Hinv e-value    0.169195286618449     
   GDM::BFGS:   highest Hinv e-value    6.75672329043836     
   GDM::      : max scaling in EWCs is          2.82842712474619     
   GDM::      : max rotation in step is       -1.032283872133405E-002
   GDM::        grad.step =  -5.520817987427522E-005
   ------- Leaving GDM -- hopefully with a step in the right direction! --------
 
   39    -491.2077271131      3.32E-03  Gap = -980.16 eV  Normal BFGS step
 
   ------------------- Entering Geometric Direct Minimization ------------------
   GDM::trust : actual energy change is       -5.035449902379696E-005
   GDM::trust : predicted energy change was   -8.281226981141283E-005
   GDM::trust : updated trust radius is        0.330000000000000     
   GDM:         diagonal hessian shift is      0.000000000000000E+000
   GDM::PreWSS: input subspace size is                 19
   GDM::PreWSS: working subspace size set to           18
   GDM::PrEWSS: # of linearly dependent vectors =            0
   GDM::PrEWSS: Max dev from orthonormality =   5.699885008425554E-013
   GDM::BFGS:   lowest Hinv e-value    0.166054503584025     
   GDM::BFGS:   highest Hinv e-value    6.88160708408264     
   GDM::      : max scaling in EWCs is          2.82842712474619     
   GDM::      : max rotation in step is        7.409352716312008E-003
   GDM::        grad.step =  -1.624886593719883E-005
   ------- Leaving GDM -- hopefully with a step in the right direction! --------
 
   40    -491.2077774676      1.52E-03  Gap = -980.16 eV  Normal BFGS step
 
   ------------------- Entering Geometric Direct Minimization ------------------
   GDM::trust : actual energy change is       -1.382991644049980E-005
   GDM::trust : predicted energy change was   -2.437329890579825E-005
   GDM::trust : updated trust radius is        0.330000000000000     
   GDM:         diagonal hessian shift is      0.000000000000000E+000
   GDM::PreWSS: input subspace size is                 19
   GDM::PreWSS: working subspace size set to           18
   GDM::PrEWSS: # of linearly dependent vectors =            0
   GDM::PrEWSS: Max dev from orthonormality =   1.502485635906936E-012
   GDM::BFGS:   lowest Hinv e-value    0.164519172122902     
   GDM::BFGS:   highest Hinv e-value    6.92415340055997     
   GDM::      : max scaling in EWCs is          2.82842712474619     
   GDM::      : max rotation in step is       -2.207617033734255E-003
   GDM::        grad.step =  -2.924695478604257E-006
   ------- Leaving GDM -- hopefully with a step in the right direction! --------
 
   41    -491.2077912975      8.33E-04  Gap = -980.16 eV  Normal BFGS step
 
   ------------------- Entering Geometric Direct Minimization ------------------
   GDM::trust : actual energy change is       -2.718600853768294E-006
   GDM::trust : predicted energy change was   -4.387043217906387E-006
   GDM::trust : updated trust radius is        0.330000000000000     
   GDM:         diagonal hessian shift is      0.000000000000000E+000
   GDM::PreWSS: input subspace size is                 19
   GDM::PreWSS: working subspace size set to           18
   GDM::PrEWSS: # of linearly dependent vectors =            0
   GDM::PrEWSS: Max dev from orthonormality =   7.057687767542120E-013
   GDM::BFGS:   lowest Hinv e-value    0.164217141653711     
   GDM::BFGS:   highest Hinv e-value    7.02099721012358     
   GDM::      : max scaling in EWCs is          2.82842712474619     
   GDM::      : max rotation in step is        1.486477333041199E-003
   GDM::        grad.step =  -2.630021308477480E-007
   ------- Leaving GDM -- hopefully with a step in the right direction! --------
 
   42    -491.2077940161      2.05E-04  Gap = -980.16 eV  Normal BFGS step
 
   ------------------- Entering Geometric Direct Minimization ------------------
   GDM::trust : actual energy change is       -2.603346729301848E-007
   GDM::trust : predicted energy change was   -3.945031962716220E-007
   GDM::trust : updated trust radius is        0.330000000000000     
   GDM:         diagonal hessian shift is      0.000000000000000E+000
   GDM::PreWSS: input subspace size is                 19
   GDM::PreWSS: working subspace size set to           18
   GDM::PrEWSS: # of linearly dependent vectors =            0
   GDM::PrEWSS: Max dev from orthonormality =   6.499592530850862E-012
   GDM::BFGS:   lowest Hinv e-value    0.159404554306819     
   GDM::BFGS:   highest Hinv e-value    7.32955131659499     
   GDM::      : max scaling in EWCs is          2.82842712474619     
   GDM::      : max rotation in step is        2.412827571935181E-004
   GDM::        grad.step =  -2.989547432374541E-008
   ------- Leaving GDM -- hopefully with a step in the right direction! --------
 
   43    -491.2077942764      9.06E-05  Gap = -980.16 eV  Normal BFGS step
 
   ------------------- Entering Geometric Direct Minimization ------------------
   GDM::trust : actual energy change is       -2.541509047659929E-008
   GDM::trust : predicted energy change was   -4.484321148561809E-008
   GDM::trust : updated trust radius is        0.330000000000000     
   GDM:         diagonal hessian shift is      0.000000000000000E+000
   GDM::PreWSS: input subspace size is                 19
   GDM::PreWSS: working subspace size set to           18
   GDM::PrEWSS: # of linearly dependent vectors =            0
   GDM::PrEWSS: Max dev from orthonormality =   1.195439580659041E-012
   GDM::BFGS:   lowest Hinv e-value    0.151788285592984     
   GDM::BFGS:   highest Hinv e-value    7.16648619790370     
   GDM::      : max scaling in EWCs is          2.82842712474619     
   GDM::      : max rotation in step is        1.144126677789232E-004
   GDM::        grad.step =  -6.204877336145600E-009
   ------- Leaving GDM -- hopefully with a step in the right direction! --------
 
   44    -491.2077943019      4.49E-05  Gap = -980.16 eV  Normal BFGS step
 
   ------------------- Entering Geometric Direct Minimization ------------------
   GDM::trust : actual energy change is       -6.308653155429056E-009
   GDM::trust : predicted energy change was   -9.307316004218398E-009
   GDM::trust : updated trust radius is        0.330000000000000     
   GDM:         diagonal hessian shift is      0.000000000000000E+000
   GDM::PreWSS: input subspace size is                 19
   GDM::PreWSS: working subspace size set to           18
   GDM::PrEWSS: # of linearly dependent vectors =            0
   GDM::PrEWSS: Max dev from orthonormality =   1.030372315247163E-011
   GDM::BFGS:   lowest Hinv e-value    0.144879380966547     
   GDM::BFGS:   highest Hinv e-value    7.11017373430252     
   GDM::      : max scaling in EWCs is          2.82842712474619     
   GDM::      : max rotation in step is        1.723893403123034E-005
   GDM::        grad.step =  -5.781624817093077E-010
   ------- Leaving GDM -- hopefully with a step in the right direction! --------
 
   45    -491.2077943082      1.03E-05  Gap = -980.16 eV  Normal BFGS step
 
   ------------------- Entering Geometric Direct Minimization ------------------
   GDM::trust : actual energy change is       -6.149889486550819E-010
   GDM::trust : predicted energy change was   -8.672437225639615E-010
   GDM::trust : updated trust radius is        0.330000000000000     
   GDM:         diagonal hessian shift is      0.000000000000000E+000
   GDM::PreWSS: input subspace size is                 19
   GDM::PreWSS: working subspace size set to           18
   GDM::PrEWSS: # of linearly dependent vectors =            0
   GDM::PrEWSS: Max dev from orthonormality =   4.064241998502638E-012
   GDM::BFGS:   lowest Hinv e-value    0.164926952109439     
   GDM::BFGS:   highest Hinv e-value    7.19982435335864     
   GDM::      : max scaling in EWCs is          2.82842712474619     
   GDM::      : max rotation in step is       -9.041544181785551E-006
   GDM::        grad.step =  -6.421565360556065E-011
   ------- Leaving GDM -- hopefully with a step in the right direction! --------
 
   46    -491.2077943088      4.96E-06  Gap = -980.16 eV  Normal BFGS step
 
   ------------------- Entering Geometric Direct Minimization ------------------
   GDM::trust : actual energy change is       -6.451728040701710E-011
   GDM::trust : predicted energy change was   -9.632348040834096E-011
   GDM::trust : updated trust radius is        0.330000000000000     
   GDM:         diagonal hessian shift is      0.000000000000000E+000
   GDM::PreWSS: input subspace size is                 19
   GDM::PreWSS: working subspace size set to           18
   GDM::PrEWSS: # of linearly dependent vectors =            0
   GDM::PrEWSS: Max dev from orthonormality =   6.414868636284154E-012
   GDM::BFGS:   lowest Hinv e-value    0.191055289363341     
   GDM::BFGS:   highest Hinv e-value    7.09380053537720     
   GDM::      : max scaling in EWCs is          2.82842712474619     
   GDM::      : max rotation in step is        5.150112520876973E-006
   GDM::        grad.step =  -1.461843542738222E-011
   ------- Leaving GDM -- hopefully with a step in the right direction! --------
 
   47    -491.2077943089      9.39E-07  Gap = -980.16 eV  Normal BFGS step
 
   ------------------- Entering Geometric Direct Minimization ------------------
   GDM::trust : actual energy change is       -4.774847184307873E-012
   GDM::trust : predicted energy change was   -2.192765314107333E-011
   GDM::trust : updated trust radius is        0.330000000000000     
   GDM:         diagonal hessian shift is      0.000000000000000E+000
   GDM::PreWSS: input subspace size is                 19
   GDM::PreWSS: working subspace size set to           18
   GDM::PrEWSS: # of linearly dependent vectors =            0
   GDM::PrEWSS: Max dev from orthonormality =   2.885063715707403E-012
   GDM::BFGS:   lowest Hinv e-value    0.194744976306895     
   GDM::BFGS:   highest Hinv e-value    6.92026587294971     
   GDM::      : max scaling in EWCs is          2.82842712474619     
   GDM::      : max rotation in step is       -3.984436943507717E-006
   GDM::        grad.step =  -9.012085383637720E-012
   ------- Leaving GDM -- hopefully with a step in the right direction! --------
 
   48    -491.2077943089      6.80E-07  Gap = -980.16 eV  Normal BFGS step
 
   ------------------- Entering Geometric Direct Minimization ------------------
   GDM::trust : actual energy change is       -4.831690603168681E-012
   GDM::trust : predicted energy change was   -1.351812807545658E-011
   GDM::trust : updated trust radius is        0.330000000000000     
   GDM:         diagonal hessian shift is      0.000000000000000E+000
   GDM::PreWSS: input subspace size is                 19
   GDM::PreWSS: working subspace size set to           18
   GDM::PrEWSS: # of linearly dependent vectors =            0
   GDM::PrEWSS: Max dev from orthonormality =   1.479278505245318E-012
   GDM::BFGS:   lowest Hinv e-value    0.178513358189819     
   GDM::BFGS:   highest Hinv e-value    6.93354120290098     
   GDM::      : max scaling in EWCs is          2.82842712474619     
   GDM::      : max rotation in step is       -9.364706907943863E-007
   GDM::        grad.step =  -3.302789896738079E-012
   ------- Leaving GDM -- hopefully with a step in the right direction! --------
 
   49    -491.2077943089      8.09E-07  Gap = -980.16 eV  Normal BFGS step
 
   ------------------- Entering Geometric Direct Minimization ------------------
   GDM::trust : actual energy change is       -3.012701199622825E-012
   GDM::trust : predicted energy change was   -4.954184845107119E-012
   GDM::trust : updated trust radius is        0.330000000000000     
   GDM:         diagonal hessian shift is      0.000000000000000E+000
   GDM::PreWSS: input subspace size is                 19
   GDM::PreWSS: working subspace size set to           18
   GDM::PrEWSS: # of linearly dependent vectors =            0
   GDM::PrEWSS: Max dev from orthonormality =   4.700129174750600E-012
   GDM::BFGS:   lowest Hinv e-value    0.172403334443758     
   GDM::BFGS:   highest Hinv e-value    6.91300055856860     
   GDM::      : max scaling in EWCs is          2.82842712474619     
   GDM::      : max rotation in step is        5.863064619384371E-007
   GDM::        grad.step =  -4.689850145490216E-013
   ------- Leaving GDM -- hopefully with a step in the right direction! --------
 
   50    -491.2077943089      1.95E-07  Gap = -980.16 eV  Normal BFGS step
 
   ------------------- Entering Geometric Direct Minimization ------------------
   GDM::trust : actual energy change is       -6.821210263296962E-013
   GDM::trust : predicted energy change was   -7.034775218235325E-013
   GDM::trust : updated trust radius is        0.330000000000000     
   GDM:         diagonal hessian shift is      0.000000000000000E+000
   GDM::PreWSS: input subspace size is                 19
   GDM::PreWSS: working subspace size set to           17
   GDM::PrEWSS: # of linearly dependent vectors =            0
   GDM::PrEWSS: Max dev from orthonormality =   1.795310428098773E-012
   GDM::BFGS:   lowest Hinv e-value    0.174056671411866     
   GDM::BFGS:   highest Hinv e-value    6.94350201595343     
   GDM::      : max scaling in EWCs is          2.82842712474619     
   GDM::      : max rotation in step is       -1.946616686431501E-007
   GDM::        grad.step =  -9.960310770059209E-014
   ------- Leaving GDM -- hopefully with a step in the right direction! --------
 
   51    -491.2077943089      8.24E-08  Gap = -980.16 eV  Normal BFGS step
 
   ------------------- Entering Geometric Direct Minimization ------------------
   GDM::trust : actual energy change is        2.842170943040401E-013
   GDM::trust : predicted energy change was   -1.494046615508882E-013
   GDM::trust : updated trust radius is        0.108900000000000     
   GDM::WARNING energy changes are now smaller than effective accuracy.
   GDM::        calculation will continue, but THRESH should be increased
   GDM::        or SCF_CONVERGENCE decreased.
   GDM::        effective_thresh =   2.000000000000000E-010
   GDM:         diagonal hessian shift is      0.000000000000000E+000
   GDM::PreWSS: input subspace size is                 18
   GDM::PreWSS: working subspace size set to           16
   GDM::PrEWSS: # of linearly dependent vectors =            0
   GDM::PrEWSS: Max dev from orthonormality =   1.075112221471386E-012
   GDM::BFGS:   lowest Hinv e-value    0.174641494806239     
   GDM::BFGS:   highest Hinv e-value    6.96557839232185     
   GDM::      : max scaling in EWCs is          2.82842712474619     
   GDM::      : max rotation in step is       -2.004539577902532E-007
   GDM::        grad.step =  -2.810808430936851E-014
   ------- Leaving GDM -- hopefully with a step in the right direction! --------
 
   52    -491.2077943089      6.69E-08  Gap = -980.16 eV  Normal BFGS step
 
   ------------------- Entering Geometric Direct Minimization ------------------
   GDM::trust : actual energy change is       -3.410605131648481E-013
   GDM::trust : predicted energy change was   -4.216212646405275E-014
   GDM::trust : updated trust radius is        0.330000000000000     
   GDM:         diagonal hessian shift is      0.000000000000000E+000
   GDM::PreWSS: input subspace size is                 17
   GDM::PreWSS: working subspace size set to           13
   GDM::PrEWSS: # of linearly dependent vectors =            0
   GDM::PrEWSS: Max dev from orthonormality =   2.577979496543037E-012
   GDM::BFGS:   lowest Hinv e-value    0.178136359339389     
   GDM::BFGS:   highest Hinv e-value    4.42085772641135     
   GDM::      : max scaling in EWCs is          2.82842712474619     
   GDM::      : max rotation in step is        3.096797790478600E-008
   GDM::        grad.step =  -1.577836580977125E-015
   ------- Leaving GDM -- hopefully with a step in the right direction! --------
 
   53    -491.2077943089      9.43E-09 Convergence criterion met
 ---------------------------------------
 One-Electron    Energy =  -947.5362038991
 Total Coulomb   Energy =   373.3669017174
 Alpha Exchange  Energy =    -3.5848029401
 Beta  Exchange  Energy =    -3.5848029401
 DFT   Exchange  Energy =   -28.6680606299
 DFT Correlation Energy =    -1.7979249569
 Nuclear Repu.   Energy =   120.5970993399
 Nuclear Attr.   Energy = -1393.1269013423
 Kinetic         Energy =   445.5906974432
 SCF time:  CPU 140.06 s  wall 20.21 s
 SCF   energy in the final basis set = -491.2077943089
 Total energy in the final basis set = -491.2077943089
 
 --------------------------------------------------------------
 
                    Orbital Energies (a.u.)
 --------------------------------------------------------------
 
 Alpha MOs
 -- Occupied --
-88.799  -7.877  -5.838  -5.837  -5.835  -2.024  -1.953  -1.306
 -1.209  -1.197  -1.162  -1.151  -1.088  -0.623  -0.283  -0.247
 -0.246  -0.201  -0.197  -0.152
 -- Virtual --
 -0.107  -0.067  -0.066  -0.058  -0.017  -0.016  -0.013   0.000
  0.010   0.015   0.028   0.040   0.061   0.068   0.069   0.081
  0.091   0.100   0.114   0.122   0.143   0.165   0.197   0.210
  0.215   0.225   0.228   0.235   0.247   0.257   0.293   0.335
  0.344   0.350   0.426   0.569   0.570   0.610   0.664   0.851
  0.860   0.866   0.928   0.971   6.566  16.173
 --------------------------------------------------------------
 
          Ground-State Mulliken Net Atomic Charges

     Atom                 Charge (a.u.)
  ----------------------------------------
      1 Zr                    0.189123
      2 Zr                    0.169245
      3 S                    -0.358367
  ----------------------------------------
  Sum of atomic charges =     0.000000

 -----------------------------------------------------------------
                    Cartesian Multipole Moments
 -----------------------------------------------------------------
    Charge (ESU x 10^10)
                 0.0000
    Dipole Moment (Debye)
         X      -2.1852      Y       4.5287      Z       0.0000
       Tot       5.0283
    Quadrupole Moments (Debye-Ang)
        XX     -46.5364     XY       8.1709     YY     -61.6062
        XZ       0.0000     YZ       0.0000     ZZ     -64.0434
    Octopole Moments (Debye-Ang^2)
       XXX     -26.1756    XXY      16.0786    XYY      -5.4563
       YYY      42.0786    XXZ       0.0000    XYZ       0.0000
       YYZ       0.0000    XZZ      -4.3549    YZZ       7.6478
       ZZZ       0.0000
    Hexadecapole Moments (Debye-Ang^3)
      XXXX    -337.5341   XXXY      44.1258   XXYY    -126.9666
      XYYY      43.1216   YYYY    -418.9479   XXXZ       0.0000
      XXYZ       0.0000   XYYZ       0.0000   YYYZ       0.0000
      XXZZ     -90.2212   XYZZ      11.0578   YYZZ     -94.3472
      XZZZ       0.0000   YZZZ       0.0000   ZZZZ    -154.7023
 -----------------------------------------------------------------
Archival summary:
1\1\hpc3447\SP\ProcedureUnspecified\BasisUnspecified\r21(+,1)\liqiuy\FriJan1719:35:292020FriJan1719:35:292020\0\\#,ProcedureUnspecified,BasisUnspecified,\\56,1\Zr\Zr,1,2.05475\S,1,2.34547,2,69.7682\\\@

 Total job time:  21.32s(wall), 148.24s(cpu) 
 Fri Jan 17 19:35:29 2020

        *************************************************************
        *                                                           *
        *  Thank you very much for using Q-Chem.  Have a nice day.  *
        *                                                           *
        *************************************************************


0 sent ACK to 0 
now end server 0 ... 
cleanup process ... done

Running Job 2 of 2 ZrOx.in
qchem ZrOx.in_59723.1 /tmp/5732668.priya/ZrOx.save/ 1
/usr/usc/qchem/4.4/bin/mpi/mpirun_qchem -machinefile /usr/usc/qchem/4.4/bin/mpi/machines -np 1 /usr/usc/qchem/4.4/exe/qcprog.exe ZrOx.in_59723.1 /tmp/5732668.priya/ZrOx.save/

Process 0 of 1 is on hpc3447.hpcc.usc.edu - thread support 0
initial socket setup ...start
initial socket setup ...done 
now start server 0 ... 
Check license passed

                  Welcome to Q-Chem
     A Quantum Leap Into The Future Of Chemistry


 Q-Chem 4.4, Q-Chem, Inc., Pleasanton, CA (2016)

 Y. Shao,  Z. Gan,  E. Epifanovsky,  A. T. B. Gilbert,  M. Wormit,  
 J. Kussmann,  A. W. Lange,  A. Behn,  J. Deng,  X. Feng,  D. Ghosh,  
 M. Goldey,  P. R. Horn,  L. D. Jacobson,  I. Kaliman,  F.Rob,  
 R. Z. Khaliullin,  T. Kus,  A. Landau,  J. Liu,  E. I. Proynov,  Y. M. Rhee,  
 R. M. Richard,  M. A. Rohrdanz,  R. P. Steele,  E. J. Sundstrom,  
 H. L. Woodcock III,  P. M. Zimmerman,  D. Zuev,  B. Albrecht,  E. Alguire,  
 B. Austin,  S. A. Baeppler,  G. J. O. Beran,  Y. A. Bernard,  E. Berquist,  
 K. Brandhorst,  K. B. Bravaya,  S. T. Brown,  D. Casanova,  C.-M. Chang,  
 Y. Chen,  S. H. Chien,  K. D. Closser,  M. P. Coons,  D. L. Crittenden,  
 S. Dasgupta,  M. Diedenhofen,  R. A. DiStasio Jr.,  H. Do,  A. D. Dutoi,  
 R. G. Edgar,  P.-T. Fang,  S. Fatehi,  Q. Feng,  L. Fusti-Molnar,  
 A. Ghysels,  A. Golubeva-Zadorozhnaya,  J. Gomes,  A. Gunina,  
 M. W. D. Hanson-Heine,  P. H. P. Harbach,  A. W. Hauser,  E. G. Hohenstein,  
 Z. C. Holden,  K. Hui,  T.-C. Jagau,  H. Ji,  B. Kaduk,  K. Khistyaev,  
 Jaehoon Kim,  Jihan Kim,  R. A. King,  P. Klunzinger,  D. Kosenkov,  
 T. Kowalczyk,  C. M. Krauter,  A. Kunitsa,  K. U. Lao,  A. Laurent,  
 K. V. Lawler,  D. Lefrancois,  S. Lehtola,  S. V. Levchenko,  C. Y. Lin,  
 Y.-S. Lin,  F. Liu,  E. Livshits,  R. C. Lochan,  A. Luenser,  P. Manohar,  
 S. F. Manzer,  S.-P. Mao,  Y. Mao,  N. Mardirossian,  A. V. Marenich,  
 L. A. Martinez-Martinez,  S. A. Maurer,  N. J. Mayhall,  J.-M. Mewes,  
 A. F. Morrison,  K. Nanda,  C. M. Oana,  R. Olivares-Amaya,  D. P. O'Neill,  
 J. A. Parkhill,  T. M. Perrine,  R. Peverati,  P. A. Pieniazek,  F. Plasser,  
 A. Prociuk,  D. R. Rehn,  E. Rosta,  N. J. Russ,  N. Sergueev,  
 S. M. Sharada,  S. Sharma,  D. W. Small,  A. Sodt,  T. Stauch,  T. Stein,  
 D. Stuck,  Y.-C. Su,  A. J. W. Thom,  T. Tsuchimochi,  L. Vogt,  O. Vydrov,  
 T. Wang,  M. A. Watson,  J. Wenzel,  A. White,  C. F. Williams,  
 V. Vanovschi,  S. Yeganeh,  S. R. Yost,  Z.-Q. You,  I. Y. Zhang,  X. Zhang,  
 Y. Zhao,  B. R. Brooks,  G. K. L. Chan,  D. M. Chipman,  C. J. Cramer,  
 W. A. Goddard III,  M. S. Gordon,  W. J. Hehre,  A. Klamt,  
 H. F. Schaefer III,  M. W. Schmidt,  C. D. Sherrill,  D. G. Truhlar,  
 A. Warshel,  X. Xu,  A. Aspuru-Guzik,  R. Baer,  A. T. Bell,  N. A. Besley,  
 J.-D. Chai,  A. Dreuw,  B. D. Dunietz,  T. R. Furlani,  S. R. Gwaltney,  
 C.-P. Hsu,  Y. Jung,  J. Kong,  D. S. Lambrecht,  W. Liang,  C. Ochsenfeld,  
 V. A. Rassolov,  L. V. Slipchenko,  J. E. Subotnik,  T. Van Voorhis,  
 J. M. Herbert,  A. I. Krylov,  P. M. W. Gill,  M. Head-Gordon

 Contributors to earlier versions of Q-Chem not listed above: 
 R. D. Adamson,  J. Baker,  E. F. C. Byrd,  A. K. Chakraborty,  C.-L. Cheng,  
 H. Dachsel,  R. J. Doerksen,  G. Hawkins,  A. Heyden,  S. Hirata,  
 G. Kedziora,  F. J. Keil,  C. Kelley,  P. P. Korambath,  W. Kurlancheek,  
 A. M. Lee,  M. S. Lee,  D. Liotard,  I. Lotan,  P. E. Maslen,  N. Nair,  
 D. Neuhauser,  R. Olson,  B. Peters,  J. Ritchie,  N. E. Schultz,  
 N. Shenvi,  A. C. Simmonett,  K. S. Thanthiriwatte,  Q. Wu,  W. Zhang

 Please cite Q-Chem as follows:
 Y. Shao et al., Mol. Phys. 113, 184-215 (2015)
 DOI: 10.1080/00268976.2014.952696

 Q-Chem 4.4.1 for Intel X86 Linux

 Parts of Q-Chem use Armadillo 5.200.1 (Boston Tea Smuggler).
 http://arma.sourceforge.net/

 Q-Chem begins on Fri Jan 17 19:35:32 2020  

Host: 
0

     Scratch files written to /tmp/5732668.priya/ZrOx.save//
 Jul2716 11668_ 21447  21445 5558   
 Parallel job on  1  processors
Processing $rem in /usr/usc/qchem/4.4/config/preferences.
 MEM_TOTAL  2000 
The previous job contains 0 fragments, simply inherited here

Checking the input file for inconsistencies... 	...done.

--------------------------------------------------------------
User input:
--------------------------------------------------------------

$comment
-----------------------
A GEOMETRY OPTIMIZATION
-----------------------
$end

$molecule
READ
$end

$rem
JOBTYPE   OPT
METHOD   B3LYP
BASIS   GEN
ECP   GEN
SCF_GUESS   READ
MAX_SCF_CYCLES   200
SCF_CONVERGENCE 8
SCF_PRINT 1
PDB_PRINT 2
THRESH 14
VARTHRESH 14
INCDFT FALSE
SYMMETRY False
Sym_ignore True
SCF_ALGORITHM GDM
XC_GRID 000128000302
GEOM_OPT_MAX_CYCLES 200
DFT_D           EMPIRICAL_GRIMME3
DFT_D3_S6       1000
DFT_D3_RS6     1261
DFT_D3_S8      1703
DFT_D3_3BODY    FALSE
SCF_PRINT 1
PDB_PRINT 2
$end

$basis
O
6-31+G**
****
S
6-31+G**
****
Zr
LanL2DZ
****
$end

$ecp
Zr
LanL2DZ
****
$end

--------------------------------------------------------------
 ----------------------------------------------------------------
             Standard Nuclear Orientation (Angstroms)
    I     Atom           X                Y                Z
 ----------------------------------------------------------------
    1      Zr      0.8053100000     0.6926800000     0.0000000000
    2      Zr     -1.1083600000    -0.0555600000     0.0000000000
    3      S       0.8513000000    -1.6523400000     0.0000000000
 ----------------------------------------------------------------
 Nuclear Repulsion Energy =   120.5970993351 hartrees
 There are       20 alpha and       20 beta electrons

 Q-Chem warning in module /home/scratch/svnadmin/11668_zgan/qchem/forms1/BasisType.C, line 1419:

 Setting pure/cartesian flag to 2111 for general basis


 Requested basis set is non-standard
 There are 22 shells and 66 basis functions

 Total QAlloc Memory Limit   2000 MB
 Mega-Array Size        61 MB
 MEM_STATIC part        62 MB
 A cutoff of  1.0D-14 yielded    253 shell pairs
 There are      2303 function pairs (      2673 Cartesian)
 
 -------------------------------------------------------
 OpenMP Integral Computing Module                       
 Release: version 1.0, May 2013, Q-Chem Inc. Pittsburgh 
 -------------------------------------------------------
 Integral Job Info:
 Integral job number is                      11
 Integral operator is                         1
 short-range coefficients                     0
 long-range coefficients              100000000
 Omega coefficients                           0
 if combine SR and LR in K                    0
 Integral screening is                        0
 Integral computing path is                   2
 max size of driver memory is            800000
 size of driver memory is                593474
 size of scratch memory is             15166112
 max col of scratch BK array               1296
 max len of scratch array in speh3          155
 max len of scratch index in speh4           18
 max int batch size is                      520
 min int batch size is                       52
 fixed nKL is                                52
 max L of basis functions is                  2
 order of int derivative is                   0
 number of shells is                         22
 number of basis is                          71
 number of cartesian basis is                71
 number of contracted shell pairs           253
 number of primitive shell pairs           1467
 maxK2 (contraction) of shell pair           36
 max number of K2 of shell pair               1
 max number of CS2 of shell pair             10
 max number of PS2 of shell pair             96
 mem total for path MDJ                   21952
 -------------------------------------------------------
 Requested basis set is non-standard
 Compound shells will be simplified
 There are 26 shells and 66 basis functions
 A cutoff of  1.0D-14 yielded    351 shell pairs
 There are      2291 function pairs (      2661 Cartesian)
 Smallest overlap matrix eigenvalue = 1.12E-03

 Scale SEOQF with 1.000000e-01/1.000000e-01/1.000000e-01

 Standard Electronic Orientation quadrupole field applied
 Nucleus-field energy     =     0.0000000048 hartrees
 Guess MOs from SCF MO coefficient file
 Reading MOs from coefficient file
 Reading MOs from coefficient file
 A restricted hybrid HF-DFT SCF calculation will be
 performed using Geometric Direct Minimization
 Exchange:     0.2000 Hartree-Fock + 0.0800 Slater + 0.7200 B88
 Correlation:  0.1900 VWN1RPA + 0.8100 LYP
 Using Euler-Maclaurin-Lebedev (128,302) quadrature formula
 Dispersion:   Grimme D3
 SCF converges when RMS gradient is below 1.0E-08
 Maximum number of minimization steps = 200
 using 12 threads for integral computing 
 -------------------------------------------------------
 OpenMP BLAS3 based DFT computing Module                
 Release: version 1.0, May 2013, Q-Chem Inc. Pittsburgh 
 -------------------------------------------------------
 
   ------------------- Entering Geometric Direct Minimization ------------------
   GDM:         diagonal hessian shift is      0.000000000000000E+000
   GDM::PreWSS: input subspace size is                  1
   GDM::PreWSS: working subspace size set to            1
   GDM::PrEWSS: # of linearly dependent vectors =            0
   GDM::PrEWSS: Max dev from orthonormality =   0.000000000000000E+000
   GDM::BFGS:   lowest Hinv e-value     1.00000000000000     
   GDM::BFGS:   highest Hinv e-value    1.00000000000000     
   GDM::      : max scaling in EWCs is          2.82842712474619     
   GDM::      : max rotation in step is       -1.002525912168790E-008
   GDM::        grad.step =  -6.222190394184635E-016
   ------- Leaving GDM -- hopefully with a step in the right direction! --------
 
 ---------------------------------------
  Cycle       Energy        RMS Gradient
 ---------------------------------------
    1    -491.2077943089      5.12E-09  Gap = 0.00 eV  Normal BFGS step
 
   ------------------- Entering Geometric Direct Minimization ------------------
   GDM::trust : actual energy change is        5.115907697472721E-013
   GDM::trust : predicted energy change was   -9.333285591276955E-016
   GDM::trust : updated trust radius is        0.108900000000000     
[...]
   GDM::      : max scaling in EWCs is          2.70605025730407     
   GDM::      : max rotation in step is        1.632202176511271E-004
   GDM::        grad.step =  -2.060659789959070E-007
   ------- Leaving GDM -- hopefully with a step in the right direction! --------
 
    7    -491.2732840227      2.17E-04  Gap = -216.26 eV  Normal BFGS step
 
   ------------------- Entering Geometric Direct Minimization ------------------
   GDM::trust : actual energy change is       -1.692246200946101E-007
   GDM::trust : predicted energy change was   -3.090989684938606E-007
   GDM::trust : updated trust radius is        0.330000000000000     
   GDM:         diagonal hessian shift is      0.000000000000000E+000
   GDM::PreWSS: input subspace size is                  6
   GDM::PreWSS: working subspace size set to            6
   GDM::PrEWSS: # of linearly dependent vectors =            2
   GDM::PrEWSS: Max dev from orthonormality =   6.023555230993960E-010
   GDM::BFGS:   lowest Hinv e-value    0.144365709382245     
   GDM::BFGS:   highest Hinv e-value    2.06317894267712     
   GDM::      : max scaling in EWCs is          2.70582119445929     
   GDM::      : max rotation in step is        9.459889700793206E-005
   GDM::        grad.step =  -3.179096870767756E-008
   ------- Leaving GDM -- hopefully with a step in the right direction! --------
 
    8    -491.2732841920      6.39E-05  Gap = -216.26 eV  Normal BFGS step
 
   ------------------- Entering Geometric Direct Minimization ------------------
   GDM::trust : actual energy change is       -2.046004965450265E-008
   GDM::trust : predicted energy change was   -4.768645306151634E-008
   GDM::trust : updated trust radius is        0.330000000000000     
   GDM:         diagonal hessian shift is      0.000000000000000E+000
   GDM::PreWSS: input subspace size is                  7
   GDM::PreWSS: working subspace size set to            7
   GDM::PrEWSS: # of linearly dependent vectors =            4
   GDM::PrEWSS: Max dev from orthonormality =   1.370086093188672E-010
   GDM::BFGS:   lowest Hinv e-value    0.143016169726203     
   GDM::BFGS:   highest Hinv e-value    1.83536790351595     
   GDM::      : max scaling in EWCs is          2.70591500837418     
   GDM::      : max rotation in step is        1.243666579596370E-004
   GDM::        grad.step =  -7.675632143226080E-009
   ------- Leaving GDM -- hopefully with a step in the right direction! --------
 
    9    -491.2732842124      4.06E-05  Gap = -216.26 eV  Normal BFGS step
 
   ------------------- Entering Geometric Direct Minimization ------------------
   GDM::trust : actual energy change is       -8.505139703629538E-009
   GDM::trust : predicted energy change was   -1.151344821483912E-008
   GDM::trust : updated trust radius is        0.330000000000000     
   GDM:         diagonal hessian shift is      0.000000000000000E+000
   GDM::PreWSS: input subspace size is                  8
   GDM::PreWSS: working subspace size set to            8
   GDM::PrEWSS: # of linearly dependent vectors =            5
   GDM::PrEWSS: Max dev from orthonormality =   3.151407936691220E-010
   GDM::BFGS:   lowest Hinv e-value    0.143417799056169     
   GDM::BFGS:   highest Hinv e-value    2.21102155204963     
   GDM::      : max scaling in EWCs is          2.70588703257698     
   GDM::      : max rotation in step is        1.198080194756865E-004
   GDM::        grad.step =  -1.387763808273332E-009
   ------- Leaving GDM -- hopefully with a step in the right direction! --------
 
   10    -491.2732842209      2.49E-05  Gap = -216.26 eV  Normal BFGS step
 
   ------------------- Entering Geometric Direct Minimization ------------------
   GDM::trust : actual energy change is       -1.747991973388707E-009
   GDM::trust : predicted energy change was   -2.081645712409998E-009
   GDM::trust : updated trust radius is        0.330000000000000     
   GDM:         diagonal hessian shift is      0.000000000000000E+000
   GDM::PreWSS: input subspace size is                  9
   GDM::PreWSS: working subspace size set to            9
   GDM::PrEWSS: # of linearly dependent vectors =            6
   GDM::PrEWSS: Max dev from orthonormality =   6.734450202355857E-010
   GDM::BFGS:   lowest Hinv e-value    0.141988012013722     
   GDM::BFGS:   highest Hinv e-value    3.13691729715769     
   GDM::      : max scaling in EWCs is          2.70588606730307     
   GDM::      : max rotation in step is        8.143743938681052E-005
   GDM::        grad.step =  -4.846590541515547E-010
   ------- Leaving GDM -- hopefully with a step in the right direction! --------
 
   11    -491.2732842227      9.40E-06  Gap = -216.26 eV  Normal BFGS step
 
   ------------------- Entering Geometric Direct Minimization ------------------
   GDM::trust : actual energy change is       -4.879439075011760E-010
   GDM::trust : predicted energy change was   -7.269885812273321E-010
   GDM::trust : updated trust radius is        0.330000000000000     
   GDM:         diagonal hessian shift is      0.000000000000000E+000
   GDM::PreWSS: input subspace size is                 10
   GDM::PreWSS: working subspace size set to           10
   GDM::PrEWSS: # of linearly dependent vectors =            7
   GDM::PrEWSS: Max dev from orthonormality =   3.434882343833490E-010
   GDM::BFGS:   lowest Hinv e-value    0.142392082192852     
   GDM::BFGS:   highest Hinv e-value    3.09159959040253     
   GDM::      : max scaling in EWCs is          2.70588830487352     
   GDM::      : max rotation in step is        3.927951585465825E-006
   GDM::        grad.step =  -2.541966996481570E-011
   ------- Leaving GDM -- hopefully with a step in the right direction! --------
 
   12    -491.2732842232      1.37E-06  Gap = -216.26 eV  Normal BFGS step
 
   ------------------- Entering Geometric Direct Minimization ------------------
   GDM::trust : actual energy change is       -2.120259523508139E-011
   GDM::trust : predicted energy change was   -3.812950494722355E-011
   GDM::trust : updated trust radius is        0.330000000000000     
   GDM:         diagonal hessian shift is      0.000000000000000E+000
   GDM::PreWSS: input subspace size is                 11
   GDM::PreWSS: working subspace size set to           11
   GDM::PrEWSS: # of linearly dependent vectors =            8
   GDM::PrEWSS: Max dev from orthonormality =   2.115565517907259E-010
   GDM::BFGS:   lowest Hinv e-value    0.142247737444736     
   GDM::BFGS:   highest Hinv e-value    3.04753379812139     
   GDM::      : max scaling in EWCs is          2.70589064254895     
   GDM::      : max rotation in step is       -1.533995148583133E-006
   GDM::        grad.step =  -2.373828811014167E-012
   ------- Leaving GDM -- hopefully with a step in the right direction! --------
 
   13    -491.2732842232      4.08E-07  Gap = -216.26 eV  Normal BFGS step
 
   ------------------- Entering Geometric Direct Minimization ------------------
   GDM::trust : actual energy change is       -2.728484105318785E-012
   GDM::trust : predicted energy change was   -3.560743216521251E-012
   GDM::trust : updated trust radius is        0.330000000000000     
   GDM:         diagonal hessian shift is      0.000000000000000E+000
   GDM::PreWSS: input subspace size is                 12
   GDM::PreWSS: working subspace size set to           12
   GDM::PrEWSS: # of linearly dependent vectors =            9
   GDM::PrEWSS: Max dev from orthonormality =   5.629142360574768E-010
   GDM::BFGS:   lowest Hinv e-value    0.142304317968456     
   GDM::BFGS:   highest Hinv e-value    3.07341265520008     
   GDM::      : max scaling in EWCs is          2.70589083783817     
   GDM::      : max rotation in step is       -3.159818004174170E-007
   GDM::        grad.step =  -1.660945843633465E-013
   ------- Leaving GDM -- hopefully with a step in the right direction! --------
 
   14    -491.2732842232      1.44E-07  Gap = -216.26 eV  Normal BFGS step
 
   ------------------- Entering Geometric Direct Minimization ------------------
   GDM::trust : actual energy change is        1.136868377216160E-013
   GDM::trust : predicted energy change was   -2.491418765450198E-013
   GDM::trust : updated trust radius is        0.108900000000000     
   GDM::WARNING energy changes are now smaller than effective accuracy.
   GDM::        calculation will continue, but THRESH should be increased
   GDM::        or SCF_CONVERGENCE decreased.
   GDM::        effective_thresh =   6.734450202355857E-010
   GDM:         diagonal hessian shift is      0.000000000000000E+000
   GDM::PreWSS: input subspace size is                 13
   GDM::PreWSS: working subspace size set to           13
   GDM::PrEWSS: # of linearly dependent vectors =           10
   GDM::PrEWSS: Max dev from orthonormality =   9.450686032363986E-010
   GDM::BFGS:   lowest Hinv e-value    0.142307450880195     
   GDM::BFGS:   highest Hinv e-value    3.04792461306681     
   GDM::      : max scaling in EWCs is          2.70589066113298     
   GDM::      : max rotation in step is        1.170718822290317E-007
   GDM::        grad.step =  -3.212465375612913E-014
   ------- Leaving GDM -- hopefully with a step in the right direction! --------
 
   15    -491.2732842232      6.95E-08  Gap = -216.26 eV  Normal BFGS step
 
   ------------------- Entering Geometric Direct Minimization ------------------
   GDM::trust : actual energy change is       -5.115907697472721E-013
   GDM::trust : predicted energy change was   -4.818698063419371E-014
   GDM::trust : updated trust radius is        0.330000000000000     
   GDM:         diagonal hessian shift is      0.000000000000000E+000
   GDM::PreWSS: input subspace size is                 14
   GDM::PreWSS: working subspace size set to           14
   GDM::PrEWSS: # of linearly dependent vectors =           11
   GDM::PrEWSS: Max dev from orthonormality =   4.569570694057390E-010
   GDM::BFGS:   lowest Hinv e-value    0.142289372550295     
   GDM::BFGS:   highest Hinv e-value    3.07000630654468     
   GDM::      : max scaling in EWCs is          2.70589068903727     
   GDM::      : max rotation in step is       -2.904143875249374E-008
   GDM::        grad.step =  -1.868853884849445E-015
   ------- Leaving GDM -- hopefully with a step in the right direction! --------
 
   16    -491.2732842232      1.47E-08  Gap = -216.26 eV  Normal BFGS step
 
   ------------------- Entering Geometric Direct Minimization ------------------
   GDM::trust : actual energy change is        1.705302565824240E-013
   GDM::trust : predicted energy change was   -2.803280827274167E-015
   GDM::trust : updated trust radius is        0.108900000000000     
   GDM::WARNING energy changes are now smaller than effective accuracy.
   GDM::        calculation will continue, but THRESH should be increased
   GDM::        or SCF_CONVERGENCE decreased.
   GDM::        effective_thresh =   9.450686032363986E-010
   GDM:         diagonal hessian shift is      0.000000000000000E+000
   GDM::PreWSS: input subspace size is                 15
   GDM::PreWSS: working subspace size set to           14
   GDM::PrEWSS: # of linearly dependent vectors =           12
   GDM::PrEWSS: Max dev from orthonormality =   5.701342176145374E-014
   GDM::BFGS:   lowest Hinv e-value    0.142840061285107     
   GDM::BFGS:   highest Hinv e-value    3.07432802535416     
   GDM::      : max scaling in EWCs is          2.70589067354013     
   GDM::      : max rotation in step is       -1.642596295361179E-008
   GDM::        grad.step =  -2.341037794955848E-016
   ------- Leaving GDM -- hopefully with a step in the right direction! --------
 
   17    -491.2732842232      5.71E-09 Convergence criterion met
 ---------------------------------------
 One-Electron    Energy =  -934.4502765613
 Total Coulomb   Energy =   366.5314061262
 Alpha Exchange  Energy =    -3.5638219708
 Beta  Exchange  Energy =    -3.5638219708
 DFT   Exchange  Energy =   -28.5130180620
 DFT Correlation Energy =    -1.7830213802
 Nuclear Repu.   Energy =   114.0692695958
 Nuclear Attr.   Energy = -1379.3214378432
 Kinetic         Energy =   444.8711612818
 SCF time:  CPU 46.94 s  wall 5.81 s
 SCF   energy in the final basis set = -491.2732842232
 Total energy in the final basis set = -491.2732842232
 
 --------------------------------------------------------------
 
                    Orbital Energies (a.u.)
 --------------------------------------------------------------
 
 Alpha MOs
 -- Occupied --
-88.810  -7.889  -5.849  -5.849  -5.848  -2.004  -1.989  -1.227
 -1.207  -1.206  -1.195  -1.194  -1.146  -0.636  -0.280  -0.267
 -0.258  -0.176  -0.169  -0.161
 -- Virtual --
 -0.093  -0.078  -0.066  -0.051  -0.050  -0.041  -0.035  -0.018
 -0.018  -0.014   0.012   0.030   0.037   0.043   0.054   0.078
  0.084   0.090   0.093   0.117   0.133   0.147   0.166   0.193
  0.206   0.217   0.226   0.232   0.237   0.250   0.277   0.290
  0.294   0.327   0.349   0.558   0.559   0.596   0.660   0.832
  0.850   0.851   0.926   0.938   3.996  10.032
 --------------------------------------------------------------
 
          Ground-State Mulliken Net Atomic Charges

     Atom                 Charge (a.u.)
  ----------------------------------------
      1 Zr                    0.200921
      2 Zr                    0.200421
      3 S                    -0.401342
  ----------------------------------------
  Sum of atomic charges =     0.000000

 -----------------------------------------------------------------
                    Cartesian Multipole Moments
 -----------------------------------------------------------------
    Charge (ESU x 10^10)
                 0.0000
    Dipole Moment (Debye)
         X      -1.4631      Y       3.2217      Z       0.0000
       Tot       3.5384
    Quadrupole Moments (Debye-Ang)
        XX     -53.3408     XY       7.1202     YY     -65.5400
        XZ       0.0000     YZ       0.0000     ZZ     -60.6538
    Octopole Moments (Debye-Ang^2)
       XXX     -25.9243    XXY      13.8847    XYY      -2.3283
       YYY      34.3681    XXZ       0.0000    XYZ       0.0000
       YYZ       0.0000    XZZ      -4.8053    YZZ       6.7338
       ZZZ       0.0000
    Hexadecapole Moments (Debye-Ang^3)
      XXXX    -496.5215   XXXY     -21.8307   XXYY    -162.5245
      XYYY       8.0614   YYYY    -464.7976   XXXZ       0.0000
      XXYZ       0.0000   XYYZ       0.0000   YYYZ       0.0000
      XXZZ    -100.4988   XYZZ       0.9356   YYZZ    -101.3814
      XZZZ       0.0000   YZZZ       0.0000   ZZZZ    -137.7964
 -----------------------------------------------------------------
 Calculating analytic gradient of the SCF energy
 Gradient of SCF Energy
            1           2           3
    1  -0.0000485   0.0000257   0.0000228
    2  -0.0002826  -0.0000430   0.0003256
    3  -0.0000000   0.0000000   0.0000000
 Max gradient component =       3.256E-04
 RMS gradient           =       1.458E-04
 Gradient time:  CPU 7.46 s  wall 1.75 s
 Geometry Optimization Parameters
   NAtoms,    NIC,     NZ,  NCons,   NDum,   NFix, NCnnct, MaxDiis
        3      12       0       0       0       0       0       0

 Cartesian Hessian Update
 Hessian Updated using BFGS Update


** GEOMETRY OPTIMIZATION IN DELOCALIZED INTERNAL COORDINATES **
   Searching for a Minimum

   Optimization Cycle:   6

                       Coordinates (Angstroms)
     ATOM                X               Y               Z
      1  Zr        1.0120634180    0.8107794819    0.0000000000
      2  Zr       -1.2295166065   -0.2053182966    0.0000000000
      3  S         0.7657031885   -1.6206811853    0.0000000000
   Point Group: c1    Number of degrees of freedom:     3


   Energy is   -491.273284223

 Hessian Updated using BFGS Update

  3 Hessian modes will be used to form the next step
  Hessian Eigenvalues:
     0.086310    0.194894    0.346401

 Minimum Search - Taking Simple RFO Step
 Searching for Lamda that Minimizes Along All modes
 Value Taken    Lamda =   0.00000000
 Step Taken.  Stepsize is  0.001105

                             Maximum     Tolerance    Cnvgd?
         Gradient           0.000195      0.000300     YES
         Displacement       0.000862      0.001200     YES
         Energy change     -0.000008      0.000001      NO


                       Distance Matrix (Angstroms)
             Zr(  1)   Zr(  2)
   Zr(  2)  2.461125
   S (  3)  2.443910  2.446253
 
 Final energy is   -491.273284223187     


 ******************************
 **  OPTIMIZATION CONVERGED  **
 ******************************

                       Coordinates (Angstroms)
     ATOM                X               Y               Z
      1  Zr        1.0120634180    0.8107794819    0.0000000000
      2  Zr       -1.2295166065   -0.2053182966    0.0000000000
      3  S         0.7657031885   -1.6206811853    0.0000000000

Z-matrix Print:
$molecule
0 1
Zr
S  1 2.443910
Zr 2 2.446253 1 60.434563
$end

 
 --------------------------------------------------------------
 
                    Orbital Energies (a.u.)
 --------------------------------------------------------------
 
 Alpha MOs
 -- Occupied --
-88.810  -7.889  -5.849  -5.849  -5.848  -2.004  -1.989  -1.227
 -1.207  -1.206  -1.195  -1.194  -1.146  -0.636  -0.280  -0.267
 -0.258  -0.176  -0.169  -0.161
 -- Virtual --
 -0.093  -0.078  -0.066  -0.051  -0.050  -0.041  -0.035  -0.018
 -0.018  -0.014   0.012   0.030   0.037   0.043   0.054   0.078
  0.084   0.090   0.093   0.117   0.133   0.147   0.166   0.193
  0.206   0.217   0.226   0.232   0.237   0.250   0.277   0.290
  0.294   0.327   0.349   0.558   0.559   0.596   0.660   0.832
  0.850   0.851   0.926   0.938   3.996  10.032
 --------------------------------------------------------------
 
          Ground-State Mulliken Net Atomic Charges

     Atom                 Charge (a.u.)
  ----------------------------------------
      1 Zr                    0.200921
      2 Zr                    0.200421
      3 S                    -0.401342
  ----------------------------------------
  Sum of atomic charges =     0.000000

 -----------------------------------------------------------------
                    Cartesian Multipole Moments
 -----------------------------------------------------------------
    Charge (ESU x 10^10)
                 0.0000
    Dipole Moment (Debye)
         X      -1.4631      Y       3.2217      Z       0.0000
       Tot       3.5384
    Quadrupole Moments (Debye-Ang)
        XX     -53.3408     XY       7.1202     YY     -65.5400
        XZ       0.0000     YZ       0.0000     ZZ     -60.6538
    Octopole Moments (Debye-Ang^2)
       XXX     -25.9243    XXY      13.8847    XYY      -2.3283
       YYY      34.3681    XXZ       0.0000    XYZ       0.0000
       YYZ       0.0000    XZZ      -4.8053    YZZ       6.7338
       ZZZ       0.0000
    Hexadecapole Moments (Debye-Ang^3)
      XXXX    -496.5215   XXXY     -21.8307   XXYY    -162.5245
      XYYY       8.0614   YYYY    -464.7976   XXXZ       0.0000
      XXYZ       0.0000   XYYZ       0.0000   YYYZ       0.0000
      XXZZ    -100.4988   XYZZ       0.9356   YYZZ    -101.3814
      XZZZ       0.0000   YZZZ       0.0000   ZZZZ    -137.7964
 -----------------------------------------------------------------
Archival summary:
1\1\hpc3447\OPT\ProcedureUnspecified\BasisUnspecified\r21(+,1)\liqiuy\FriJan1719:36:242020FriJan1719:36:242020\0\\#,OPT,ProcedureUnspecified,BasisUnspecified,\\56,1\Zr\S,1,2.44391\Zr,2,2.44625,1,60.4346\\\@

 Total job time:  51.83s(wall), 348.05s(cpu) 
 Fri Jan 17 19:36:24 2020

        *************************************************************
        *                                                           *
        *  Thank you very much for using Q-Chem.  Have a nice day.  *
        *                                                           *
        *************************************************************


0 sent ACK to 0 
now end server 0 ... 
cleanup process ... done
