
Running Job 1 of 2 ZrOx.in
qchem ZrOx.in_62532.0 /tmp/5732675.priya/ZrOx.save/ 1
/usr/usc/qchem/4.4/bin/mpi/mpirun_qchem -machinefile /usr/usc/qchem/4.4/bin/mpi/machines -np 1 /usr/usc/qchem/4.4/exe/qcprog.exe ZrOx.in_62532.0 /tmp/5732675.priya/ZrOx.save/

Process 0 of 1 is on hpc3452.hpcc.usc.edu - thread support 0
initial socket setup ...start
initial socket setup ...done 
now start server 0 ... 
Check license passed

                  Welcome to Q-Chem
     A Quantum Leap Into The Future Of Chemistry


 Q-Chem 4.4, Q-Chem, Inc., Pleasanton, CA (2016)

 Y. Shao,  Z. Gan,  E. Epifanovsky,  A. T. B. Gilbert,  M. Wormit,  
 J. Kussmann,  A. W. Lange,  A. Behn,  J. Deng,  X. Feng,  D. Ghosh,  
 M. Goldey,  P. R. Horn,  L. D. Jacobson,  I. Kaliman,  F.Rob,  
 R. Z. Khaliullin,  T. Kus,  A. Landau,  J. Liu,  E. I. Proynov,  Y. M. Rhee,  
 R. M. Richard,  M. A. Rohrdanz,  R. P. Steele,  E. J. Sundstrom,  
 H. L. Woodcock III,  P. M. Zimmerman,  D. Zuev,  B. Albrecht,  E. Alguire,  
 B. Austin,  S. A. Baeppler,  G. J. O. Beran,  Y. A. Bernard,  E. Berquist,  
 K. Brandhorst,  K. B. Bravaya,  S. T. Brown,  D. Casanova,  C.-M. Chang,  
 Y. Chen,  S. H. Chien,  K. D. Closser,  M. P. Coons,  D. L. Crittenden,  
 S. Dasgupta,  M. Diedenhofen,  R. A. DiStasio Jr.,  H. Do,  A. D. Dutoi,  
 R. G. Edgar,  P.-T. Fang,  S. Fatehi,  Q. Feng,  L. Fusti-Molnar,  
 A. Ghysels,  A. Golubeva-Zadorozhnaya,  J. Gomes,  A. Gunina,  
 M. W. D. Hanson-Heine,  P. H. P. Harbach,  A. W. Hauser,  E. G. Hohenstein,  
 Z. C. Holden,  K. Hui,  T.-C. Jagau,  H. Ji,  B. Kaduk,  K. Khistyaev,  
 Jaehoon Kim,  Jihan Kim,  R. A. King,  P. Klunzinger,  D. Kosenkov,  
 T. Kowalczyk,  C. M. Krauter,  A. Kunitsa,  K. U. Lao,  A. Laurent,  
 K. V. Lawler,  D. Lefrancois,  S. Lehtola,  S. V. Levchenko,  C. Y. Lin,  
 Y.-S. Lin,  F. Liu,  E. Livshits,  R. C. Lochan,  A. Luenser,  P. Manohar,  
 S. F. Manzer,  S.-P. Mao,  Y. Mao,  N. Mardirossian,  A. V. Marenich,  
 L. A. Martinez-Martinez,  S. A. Maurer,  N. J. Mayhall,  J.-M. Mewes,  
 A. F. Morrison,  K. Nanda,  C. M. Oana,  R. Olivares-Amaya,  D. P. O'Neill,  
 J. A. Parkhill,  T. M. Perrine,  R. Peverati,  P. A. Pieniazek,  F. Plasser,  
 A. Prociuk,  D. R. Rehn,  E. Rosta,  N. J. Russ,  N. Sergueev,  
 S. M. Sharada,  S. Sharma,  D. W. Small,  A. Sodt,  T. Stauch,  T. Stein,  
 D. Stuck,  Y.-C. Su,  A. J. W. Thom,  T. Tsuchimochi,  L. Vogt,  O. Vydrov,  
 T. Wang,  M. A. Watson,  J. Wenzel,  A. White,  C. F. Williams,  
 V. Vanovschi,  S. Yeganeh,  S. R. Yost,  Z.-Q. You,  I. Y. Zhang,  X. Zhang,  
 Y. Zhao,  B. R. Brooks,  G. K. L. Chan,  D. M. Chipman,  C. J. Cramer,  
 W. A. Goddard III,  M. S. Gordon,  W. J. Hehre,  A. Klamt,  
 H. F. Schaefer III,  M. W. Schmidt,  C. D. Sherrill,  D. G. Truhlar,  
 A. Warshel,  X. Xu,  A. Aspuru-Guzik,  R. Baer,  A. T. Bell,  N. A. Besley,  
 J.-D. Chai,  A. Dreuw,  B. D. Dunietz,  T. R. Furlani,  S. R. Gwaltney,  
 C.-P. Hsu,  Y. Jung,  J. Kong,  D. S. Lambrecht,  W. Liang,  C. Ochsenfeld,  
 V. A. Rassolov,  L. V. Slipchenko,  J. E. Subotnik,  T. Van Voorhis,  
 J. M. Herbert,  A. I. Krylov,  P. M. W. Gill,  M. Head-Gordon

 Contributors to earlier versions of Q-Chem not listed above: 
 R. D. Adamson,  J. Baker,  E. F. C. Byrd,  A. K. Chakraborty,  C.-L. Cheng,  
 H. Dachsel,  R. J. Doerksen,  G. Hawkins,  A. Heyden,  S. Hirata,  
 G. Kedziora,  F. J. Keil,  C. Kelley,  P. P. Korambath,  W. Kurlancheek,  
 A. M. Lee,  M. S. Lee,  D. Liotard,  I. Lotan,  P. E. Maslen,  N. Nair,  
 D. Neuhauser,  R. Olson,  B. Peters,  J. Ritchie,  N. E. Schultz,  
 N. Shenvi,  A. C. Simmonett,  K. S. Thanthiriwatte,  Q. Wu,  W. Zhang

 Please cite Q-Chem as follows:
 Y. Shao et al., Mol. Phys. 113, 184-215 (2015)
 DOI: 10.1080/00268976.2014.952696

 Q-Chem 4.4.1 for Intel X86 Linux

 Parts of Q-Chem use Armadillo 5.200.1 (Boston Tea Smuggler).
 http://arma.sourceforge.net/

 Q-Chem begins on Fri Jan 17 19:36:08 2020  

Host: 
0

     Scratch files written to /tmp/5732675.priya/ZrOx.save//
 Jul2716 11668_ 21447  21445 5558   
 Parallel job on  1  processors
Processing $rem in /usr/usc/qchem/4.4/config/preferences.
 MEM_TOTAL  2000 

Checking the input file for inconsistencies... 	...done.

--------------------------------------------------------------
User input:
--------------------------------------------------------------
$comment
--------------------------------------------------------
A SINGLE POINT DFT CALCULATION WITH BASIS SET PROJECTION
--------------------------------------------------------
$end

$molecule
0 1
Zr 0.80815 -1.10228 -0.00542
Zr -1.56052 0.00423 0.00013
Zr 0.81535 1.09880 0.00529
O -0.21610 0.01032 -1.47258
O -0.21597 -0.00854 1.47262
$end

$rem
JOBTYPE   SP
METHOD   B3LYP
BASIS   GEN
ECP   GEN
MAX_SCF_CYCLES   200
SCF_CONVERGENCE 8
SCF_ALGORITHM  DIIS_GDM
SCF_PRINT 1
PDB_PRINT 2
THRESH 14
VARTHRESH 14
INCDFT FALSE
SYMMETRY False
Sym_ignore True
SCF_ALGORITHM GDM
XC_GRID 000128000302
DFT_D           EMPIRICAL_GRIMME3
DFT_D3_S6       1000
DFT_D3_RS6     1261
DFT_D3_S8      1703
DFT_D3_3BODY    FALSE
$end

$basis
O
6-31+G**
****
S
6-31+G**
****
Zr
LanL2DZ
****
$end

$ecp
Zr
LanL2DZ
****
$end

--------------------------------------------------------------
 ----------------------------------------------------------------
             Standard Nuclear Orientation (Angstroms)
    I     Atom           X                Y                Z
 ----------------------------------------------------------------
    1      Zr      0.8081500000    -1.1022800000    -0.0054200000
    2      Zr     -1.5605200000     0.0042300000     0.0001300000
    3      Zr      0.8153500000     1.0988000000     0.0052900000
    4      O      -0.2161000000     0.0103200000    -1.4725800000
    5      O      -0.2159700000    -0.0085400000     1.4726200000
 ----------------------------------------------------------------
 Nuclear Repulsion Energy =   251.8249929966 hartrees
 There are       26 alpha and       26 beta electrons

 Q-Chem warning in module /home/scratch/svnadmin/11668_zgan/qchem/forms1/BasisType.C, line 1419:

 Setting pure/cartesian flag to 2111 for general basis


 Requested basis set is non-standard
 There are 34 shells and 102 basis functions

 Total QAlloc Memory Limit   2000 MB
 Mega-Array Size        61 MB
 MEM_STATIC part        62 MB

                       Distance Matrix (Angstroms)
             Zr(  1)   Zr(  2)   Zr(  3)   O (  4)
   Zr(  2)  2.614382
   Zr(  3)  2.201118  2.615888
   O (  4)  2.107018  1.994085  2.105416
   O (  5)  2.104683  1.994042  2.107814  2.945260
 
 A cutoff of  1.0D-14 yielded    594 shell pairs
 There are      5395 function pairs (      6287 Cartesian)
 
 -------------------------------------------------------
 OpenMP Integral Computing Module                       
 Release: version 1.0, May 2013, Q-Chem Inc. Pittsburgh 
 -------------------------------------------------------
 Integral Job Info:
 Integral job number is                      11
 Integral operator is                         1
 short-range coefficients                     0
 long-range coefficients              100000000
 Omega coefficients                           0
 if combine SR and LR in K                    0
 Integral screening is                        0
 Integral computing path is                   2
 max size of driver memory is            800000
 size of driver memory is                593474
 size of scratch memory is             11760008
 max col of scratch BK array               1296
 max len of scratch array in speh3          155
 max len of scratch index in speh4           18
 max int batch size is                      520
 min int batch size is                       52
 fixed nKL is                                52
 max L of basis functions is                  2
 order of int derivative is                   0
 number of shells is                         34
 number of basis is                         110
 number of cartesian basis is               110
 number of contracted shell pairs           594
 number of primitive shell pairs           3024
 maxK2 (contraction) of shell pair           36
 max number of K2 of shell pair               1
 max number of CS2 of shell pair             24
 max number of PS2 of shell pair            204
 mem total for path MDJ                   35182
 -------------------------------------------------------
 Requested basis set is non-standard
 Compound shells will be simplified
 There are 40 shells and 102 basis functions
 A cutoff of  1.0D-14 yielded    819 shell pairs
 There are      5377 function pairs (      6269 Cartesian)
 Smallest overlap matrix eigenvalue = 1.06E-03

 Scale SEOQF with 1.000000e-01/1.000000e-01/1.000000e-01

 Standard Electronic Orientation quadrupole field applied
 Guess MOs from core Hamiltonian diagonalization
 A restricted hybrid HF-DFT SCF calculation will be
 performed using Geometric Direct Minimization
 Exchange:     0.2000 Hartree-Fock + 0.0800 Slater + 0.7200 B88
 Correlation:  0.1900 VWN1RPA + 0.8100 LYP
 Using Euler-Maclaurin-Lebedev (128,302) quadrature formula
 Dispersion:   Grimme D3
 SCF converges when RMS gradient is below 1.0E-08
 Maximum number of minimization steps = 200
 using 12 threads for integral computing 
 -------------------------------------------------------
 OpenMP BLAS3 based DFT computing Module                
 Release: version 1.0, May 2013, Q-Chem Inc. Pittsburgh 
 -------------------------------------------------------
 
   ------------------- Entering Geometric Direct Minimization ------------------
   GDM:         diagonal hessian shift is      0.000000000000000E+000
   GDM::PreWSS: input subspace size is                  1
   GDM::PreWSS: working subspace size set to            1
   GDM::PrEWSS: # of linearly dependent vectors =            0
   GDM::PrEWSS: Max dev from orthonormality =   4.440892098500626E-016
   GDM::BFGS:   lowest Hinv e-value     1.00000000000000     
   GDM::BFGS:   highest Hinv e-value    1.00000000000000     
   GDM::      : max scaling in EWCs is          1.41421356237309     
   GDM::      : max rotation in step is       -0.132440560423216     
   GDM::        grad.step =   -2.88650807857151     
   ------- Leaving GDM -- hopefully with a step in the right direction! --------
 
 ---------------------------------------
  Cycle       Energy        RMS Gradient
 ---------------------------------------
    1    -252.5245734852      2.73E+00  Gap = 0.00 eV  Descent step
 
   ------------------- Entering Geometric Direct Minimization ------------------
   GDM::trust : actual energy change is        -5.62271808333827     
   GDM::trust : predicted energy change was   -0.163350000000000     
   GDM::trust : updated trust radius is        0.330000000000000     
   GDM:         diagonal hessian shift is      0.000000000000000E+000
   GDM::PreWSS: input subspace size is                  2
   GDM::PreWSS: working subspace size set to            2
   GDM::PrEWSS: # of linearly dependent vectors =            0
   GDM::PrEWSS: Max dev from orthonormality =   1.764560719763608E-014
   GDM::BFGS:   lowest Hinv e-value    0.530943406187334     
   GDM::BFGS:   highest Hinv e-value    1.63582811528694     
   GDM::      : max scaling in EWCs is          1.41421356237309     
   GDM::      : max rotation in step is       -0.148029716041445     
   GDM::        grad.step =   -2.65323198369293     
   ------- Leaving GDM -- hopefully with a step in the right direction! --------
 
    2    -258.1472915686      2.61E+00  Gap = 0.00 eV  Descent step
 
   ------------------- Entering Geometric Direct Minimization ------------------
   GDM::trust : actual energy change is        -5.12940206158424     
   GDM::trust : predicted energy change was   -0.159725095352263     
   GDM::trust : updated trust radius is        0.330000000000000     
   GDM:         diagonal hessian shift is      0.000000000000000E+000
   GDM::PreWSS: input subspace size is                  3
   GDM::PreWSS: working subspace size set to            3
   GDM::PrEWSS: # of linearly dependent vectors =            0
   GDM::PrEWSS: Max dev from orthonormality =   1.083771961063462E-012
   GDM::BFGS:   lowest Hinv e-value    0.452691077139479     
   GDM::BFGS:   highest Hinv e-value    1.36904550330762     
   GDM::      : max scaling in EWCs is          1.41421356237309     
   GDM::      : max rotation in step is       -0.200023139100013     
   GDM::        grad.step =   -2.51325966090676     
   ------- Leaving GDM -- hopefully with a step in the right direction! --------
 
    3    -263.2766936301      3.26E+00  Gap = 0.00 eV  Descent step
 
   ------------------- Entering Geometric Direct Minimization ------------------
   GDM::trust : actual energy change is        -4.79765073993190     
   GDM::trust : predicted energy change was   -0.164257128501159     
   GDM::trust : updated trust radius is        0.330000000000000     
   GDM:         diagonal hessian shift is      0.000000000000000E+000
   GDM::PreWSS: input subspace size is                  4
   GDM::PreWSS: working subspace size set to            4
   GDM::PrEWSS: # of linearly dependent vectors =            0
   GDM::PrEWSS: Max dev from orthonormality =   2.922648234537917E-012
   GDM::BFGS:   lowest Hinv e-value    0.389552251695314     
   GDM::BFGS:   highest Hinv e-value    1.36359094013140     
   GDM::      : max scaling in EWCs is          1.41421356237309     
   GDM::      : max rotation in step is       -0.143652348910604     
   GDM::        grad.step =   -1.96363534832313     
   ------- Leaving GDM -- hopefully with a step in the right direction! --------
 
    4    -268.0743443701      1.83E+00  Gap = 0.00 eV  Descent step
 
   ------------------- Entering Geometric Direct Minimization ------------------
   GDM::trust : actual energy change is        -3.76179071895297     
   GDM::trust : predicted energy change was   -0.178440091547180     
   GDM::trust : updated trust radius is        0.330000000000000     
   GDM:         diagonal hessian shift is      0.000000000000000E+000
   GDM::PreWSS: input subspace size is                  5
   GDM::PreWSS: working subspace size set to            5
   GDM::PrEWSS: # of linearly dependent vectors =            0
   GDM::PrEWSS: Max dev from orthonormality =   5.682246340121822E-012
   GDM::BFGS:   lowest Hinv e-value    0.376600752259603     
   GDM::BFGS:   highest Hinv e-value    1.54331544171131     
   GDM::      : max scaling in EWCs is          1.41421356237309     
   GDM::      : max rotation in step is       -0.195644648383860     
   GDM::        grad.step =   -1.97289072407242     
   ------- Leaving GDM -- hopefully with a step in the right direction! --------
 
    5    -271.8361350890      2.62E+00  Gap = 0.00 eV  Descent step
 
   ------------------- Entering Geometric Direct Minimization ------------------
   GDM::trust : actual energy change is        -3.77417671578831     
   GDM::trust : predicted energy change was   -0.158720104479270     
   GDM::trust : updated trust radius is        0.330000000000000     
   GDM:         diagonal hessian shift is      0.000000000000000E+000
   GDM::PreWSS: input subspace size is                  6
   GDM::PreWSS: working subspace size set to            6
   GDM::PrEWSS: # of linearly dependent vectors =            0
   GDM::PrEWSS: Max dev from orthonormality =   5.972923544650399E-012
   GDM::BFGS:   lowest Hinv e-value    0.345294672249484     
   GDM::BFGS:   highest Hinv e-value    1.46099065443798     
   GDM::      : max scaling in EWCs is          1.41421356237309     
   GDM::      : max rotation in step is       -0.212661705537624     
   GDM::        grad.step =   -1.83516750659547     
   ------- Leaving GDM -- hopefully with a step in the right direction! --------
 
    6    -275.6103118048      2.53E+00  Gap = 0.00 eV  Descent step
 
   ------------------- Entering Geometric Direct Minimization ------------------
   GDM::trust : actual energy change is        -3.42849449102823     
   GDM::trust : predicted energy change was   -0.180973752946681     
   GDM::trust : updated trust radius is        0.330000000000000     
   GDM:         diagonal hessian shift is      0.000000000000000E+000
   GDM::PreWSS: input subspace size is                  7
   GDM::PreWSS: working subspace size set to            7
   GDM::PrEWSS: # of linearly dependent vectors =            0
   GDM::PrEWSS: Max dev from orthonormality =   2.171655216764989E-011
   GDM::BFGS:   lowest Hinv e-value    0.318218864496290     
   GDM::BFGS:   highest Hinv e-value    1.61341355887674     
   GDM::      : max scaling in EWCs is          1.41421356237309     
   GDM::      : max rotation in step is       -0.203774817248477     
   GDM::        grad.step =   -1.41638605328535     
   ------- Leaving GDM -- hopefully with a step in the right direction! --------
 
    7    -279.0388062958      2.09E+00  Gap = 0.00 eV  Descent step
 
   ------------------- Entering Geometric Direct Minimization ------------------
   GDM::trust : actual energy change is        -2.64153924216629     
   GDM::trust : predicted energy change was   -0.190456022616275     
   GDM::trust : updated trust radius is        0.330000000000000     
   GDM:         diagonal hessian shift is      0.000000000000000E+000
   GDM::PreWSS: input subspace size is                  8
   GDM::PreWSS: working subspace size set to            8
   GDM::PrEWSS: # of linearly dependent vectors =            0
   GDM::PrEWSS: Max dev from orthonormality =   1.075380756665467E-011
   GDM::BFGS:   lowest Hinv e-value    0.328433954667718     
   GDM::BFGS:   highest Hinv e-value    1.78091022638567     
   GDM::      : max scaling in EWCs is          2.82842712474619     
   GDM::      : max rotation in step is        0.328714242246493     
   GDM::        grad.step =   -1.33676268500082     
   ------- Leaving GDM -- hopefully with a step in the right direction! --------
 
    8    -281.6803455380      2.48E+00  Gap = 0.00 eV  Descent step
 
   ------------------- Entering Geometric Direct Minimization ------------------
   GDM::trust : actual energy change is        -2.42353437551202     
   GDM::trust : predicted energy change was   -0.176361667041502     
   GDM::trust : updated trust radius is        0.330000000000000     
   GDM:         diagonal hessian shift is      0.000000000000000E+000
   GDM::PreWSS: input subspace size is                  9
   GDM::PreWSS: working subspace size set to            9
   GDM::PrEWSS: # of linearly dependent vectors =            0
   GDM::PrEWSS: Max dev from orthonormality =   1.659777870699486E-011
   GDM::BFGS:   lowest Hinv e-value    0.261278061125174     
   GDM::BFGS:   highest Hinv e-value    1.91610125383561     
   GDM::      : max scaling in EWCs is          2.82842712474619     
   GDM::      : max rotation in step is        0.203001438503954     
   GDM::        grad.step =  -0.915455155825641     
   ------- Leaving GDM -- hopefully with a step in the right direction! --------
 
    9    -284.1038799135      7.91E-01  Gap = 0.00 eV  Descent step
 
   ------------------- Entering Geometric Direct Minimization ------------------
   GDM::trust : actual energy change is        -1.62499867736057     
   GDM::trust : predicted energy change was   -0.189048757845916     
   GDM::trust : updated trust radius is        0.330000000000000     
   GDM:         diagonal hessian shift is      0.000000000000000E+000
   GDM::PreWSS: input subspace size is                 10
   GDM::PreWSS: working subspace size set to           10
   GDM::PrEWSS: # of linearly dependent vectors =            0
   GDM::PrEWSS: Max dev from orthonormality =   1.230081314584908E-011
   GDM::BFGS:   lowest Hinv e-value    0.251968230689041     
   GDM::BFGS:   highest Hinv e-value    2.03164323893163     
   GDM::      : max scaling in EWCs is          2.82842712474619     
   GDM::      : max rotation in step is        0.198793688738236     
   GDM::        grad.step =  -0.753777944810976     
   ------- Leaving GDM -- hopefully with a step in the right direction! --------
 
   10    -285.7288785909      6.17E-01  Gap = 0.00 eV  Descent step
 
   ------------------- Entering Geometric Direct Minimization ------------------
   GDM::trust : actual energy change is        -1.35526014456246     
   GDM::trust : predicted energy change was   -0.161513937243729     
   GDM::trust : updated trust radius is        0.330000000000000     
   GDM:         diagonal hessian shift is      0.000000000000000E+000
   GDM::PreWSS: input subspace size is                 11
   GDM::PreWSS: working subspace size set to           11
   GDM::PrEWSS: # of linearly dependent vectors =            0
   GDM::PrEWSS: Max dev from orthonormality =   1.094688575897784E-011
   GDM::BFGS:   lowest Hinv e-value    0.206824584259938     
   GDM::BFGS:   highest Hinv e-value    2.14530174637911     
   GDM::      : max scaling in EWCs is          2.82842712474619     
   GDM::      : max rotation in step is        0.270630976346783     
   GDM::        grad.step =  -0.693268011242795     
   ------- Leaving GDM -- hopefully with a step in the right direction! --------
 
   11    -287.0841387354      6.70E-01  Gap = 0.00 eV  Descent step
 
   ------------------- Entering Geometric Direct Minimization ------------------
   GDM::trust : actual energy change is        -1.08948860923857     
   GDM::trust : predicted energy change was   -0.156173447058092     
   GDM::trust : updated trust radius is        0.330000000000000     
   GDM:         diagonal hessian shift is      0.000000000000000E+000
   GDM::PreWSS: input subspace size is                 12
   GDM::PreWSS: working subspace size set to           12
   GDM::PrEWSS: # of linearly dependent vectors =            0
   GDM::PrEWSS: Max dev from orthonormality =   2.424714422299967E-011
   GDM::BFGS:   lowest Hinv e-value    0.166654425571681     
   GDM::BFGS:   highest Hinv e-value    2.85529449421534     
   GDM::      : max scaling in EWCs is          2.82842712474619     
   GDM::      : max rotation in step is       -0.384014549306211     
   GDM::        grad.step =  -0.447549590953755     
   ------- Leaving GDM -- hopefully with a step in the right direction! --------
 
   12    -288.1736273447      5.58E-01  Gap = 0.00 eV  Descent step
 
   ------------------- Entering Geometric Direct Minimization ------------------
   GDM::trust : actual energy change is       -0.776328904552201     
   GDM::trust : predicted energy change was   -0.162316612300351     
   GDM::trust : updated trust radius is        0.330000000000000     
   GDM:         diagonal hessian shift is      0.000000000000000E+000
   GDM::PreWSS: input subspace size is                 13
   GDM::PreWSS: working subspace size set to           13
   GDM::PrEWSS: # of linearly dependent vectors =            0
   GDM::PrEWSS: Max dev from orthonormality =   1.093998502899041E-011
   GDM::BFGS:   lowest Hinv e-value    0.160403664837911     
   GDM::BFGS:   highest Hinv e-value    3.55570429516817     
   GDM::      : max scaling in EWCs is          2.82842712474619     
   GDM::      : max rotation in step is       -0.255838885399877     
   GDM::        grad.step =  -0.287632028342824     
   ------- Leaving GDM -- hopefully with a step in the right direction! --------
 
   13    -288.9499562492      2.39E-01  Gap = 0.00 eV  Descent step
 
   ------------------- Entering Geometric Direct Minimization ------------------
   GDM::trust : actual energy change is       -0.479823677030595     
   GDM::trust : predicted energy change was   -0.153314704609361     
   GDM::trust : updated trust radius is        0.330000000000000     
   GDM:         diagonal hessian shift is      0.000000000000000E+000
   GDM::PreWSS: input subspace size is                 14
   GDM::PreWSS: working subspace size set to           14
   GDM::PrEWSS: # of linearly dependent vectors =            0
   GDM::PrEWSS: Max dev from orthonormality =   8.917769300786915E-012
   GDM::BFGS:   lowest Hinv e-value    0.164592093703880     
   GDM::BFGS:   highest Hinv e-value    3.66056827033831     
   GDM::      : max scaling in EWCs is          2.82842712474619     
   GDM::      : max rotation in step is        0.423308181775950     
   GDM::        grad.step =  -0.187413904977621     
   ------- Leaving GDM -- hopefully with a step in the right direction! --------
 
   14    -289.4297799263      2.58E-01  Gap = 0.00 eV  Descent step
 
   ------------------- Entering Geometric Direct Minimization ------------------
   GDM::trust : actual energy change is       -0.156047686702379     
   GDM::trust : predicted energy change was   -0.134182647868698     
   GDM::trust : updated trust radius is        0.330000000000000     
   GDM:         diagonal hessian shift is      0.000000000000000E+000
   GDM::PreWSS: input subspace size is                 15
   GDM::PreWSS: working subspace size set to           15
   GDM::PrEWSS: # of linearly dependent vectors =            0
   GDM::PrEWSS: Max dev from orthonormality =   2.248413955019402E-011
   GDM::BFGS:   lowest Hinv e-value    0.158570406420216     
   GDM::BFGS:   highest Hinv e-value    3.77306786601936     
   GDM::      : max scaling in EWCs is          2.82842712474619     
   GDM::      : max rotation in step is       -0.390411692697897     
   GDM::        grad.step =  -0.296241347103186     
   ------- Leaving GDM -- hopefully with a step in the right direction! --------
 
   15    -289.5858276130      4.43E-01  Gap = 0.00 eV  Descent step
 
   ------------------- Entering Geometric Direct Minimization ------------------
   GDM::trust : actual energy change is        0.117062917066448     
   GDM::trust : predicted energy change was   -0.385595993051819     
   GDM::trust : updated trust radius is        0.108900000000000     
   GDM::search:  On step            1 .  The current bracket is:
       left   : x =  0.0000E+00, e =      -289.5858276130, g = -0.4259E+00
       current: x =  0.6956E+00, e =      -289.4687646959, g =  0.5063E+00
       right  : x =  0.1000E+04, e =      1000.0000000000, g =  0.1000E+04
       next   : x =  0.2493E+00
   GDM::      : max rotation in step is       -0.139916395493794     
   ------- Leaving GDM -- hopefully with a step in the right direction! --------
 
   16    -289.4687646959      2.01E-02  Gap = 0.00 eV  Line search: overstep
 
   ------------------- Entering Geometric Direct Minimization ------------------
   GDM::trust : actual energy change is       -0.118516289156901     
   GDM::trust : predicted energy change was   -0.385595993051819     
   GDM::trust : updated trust radius is        0.108900000000000     
   GDM:         diagonal hessian shift is      0.000000000000000E+000
   GDM::PreWSS: input subspace size is                 16
   GDM::PreWSS: working subspace size set to           16
   GDM::PrEWSS: # of linearly dependent vectors =            0
   GDM::PrEWSS: Max dev from orthonormality =   1.357225443143761E-011
   GDM::BFGS:   lowest Hinv e-value    0.123127503146811     
   GDM::BFGS:   highest Hinv e-value    3.71713714963573     
   GDM::      : max scaling in EWCs is          2.82842712474619     
   GDM::      : max rotation in step is       -0.188429203806384     
   GDM::        grad.step =  -2.832439218706613E-002
   ------- Leaving GDM -- hopefully with a step in the right direction! --------
 
   17    -289.7043439021      1.59E-01  Gap = 0.00 eV  Descent step
 
   ------------------- Entering Geometric Direct Minimization ------------------
   GDM::trust : actual energy change is       -4.856377439648440E-002
   GDM::trust : predicted energy change was   -1.601030067409897E-002
   GDM::trust : updated trust radius is        0.330000000000000     
   GDM:         diagonal hessian shift is      0.000000000000000E+000
   GDM::PreWSS: input subspace size is                 17
   GDM::PreWSS: working subspace size set to           17
   GDM::PrEWSS: # of linearly dependent vectors =            0
   GDM::PrEWSS: Max dev from orthonormality =   1.400969965037469E-011
   GDM::BFGS:   lowest Hinv e-value    0.129762225664607     
   GDM::BFGS:   highest Hinv e-value    3.78801554129253     
   GDM::trust : dogleg step length is          0.330000000000000     
   GDM::      : max scaling in EWCs is          2.82842712474619     
   GDM::      : max rotation in step is       -0.580098656325910     
   GDM::        grad.step =  -6.567557468014293E-002
   ------- Leaving GDM -- hopefully with a step in the right direction! --------
 
   18    -289.7529076765      1.27E-01  Gap = 0.00 eV  Dog-leg BFGS step
 
   ------------------- Entering Geometric Direct Minimization ------------------
   GDM::trust : actual energy change is       -3.287622459748718E-002
   GDM::trust : predicted energy change was   -9.452820878153234E-002
   GDM::trust : updated trust radius is        0.330000000000000     
   GDM:         diagonal hessian shift is      0.000000000000000E+000
   GDM::PreWSS: input subspace size is                 18
   GDM::PreWSS: working subspace size set to           18
   GDM::PrEWSS: # of linearly dependent vectors =            0
   GDM::PrEWSS: Max dev from orthonormality =   1.819030863436932E-011
   GDM::BFGS:   lowest Hinv e-value    0.143834658821255     
   GDM::BFGS:   highest Hinv e-value    3.99536219522505     
   GDM::      : max scaling in EWCs is          2.82842712474619     
   GDM::      : max rotation in step is        0.131060438358609     
   GDM::        grad.step =  -2.925459162560826E-002
   ------- Leaving GDM -- hopefully with a step in the right direction! --------
 
   19    -289.7857839011      1.09E-01  Gap = 0.00 eV  Normal BFGS step
 
   ------------------- Entering Geometric Direct Minimization ------------------
   GDM::trust : actual energy change is        6.232051117763149E-003
   GDM::trust : predicted energy change was   -4.388188743841238E-002
   GDM::trust : updated trust radius is        0.108900000000000     
   GDM::search:  On step            1 .  The current bracket is:
       left   : x =  0.0000E+00, e =      -289.7857839011, g = -0.1068E+00
       current: x =  0.2738E+00, e =      -289.7795518500, g =  0.1368E+00
       right  : x =  0.1000E+04, e =      1000.0000000000, g =  0.1000E+04
       next   : x =  0.1129E+00
   GDM::      : max rotation in step is        5.402201090395453E-002
   ------- Leaving GDM -- hopefully with a step in the right direction! --------
 
   20    -289.7795518500      2.32E-02  Gap = 0.00 eV  Line search: overstep
 
   ------------------- Entering Geometric Direct Minimization ------------------
   GDM::trust : actual energy change is       -1.358600699654744E-002
   GDM::trust : predicted energy change was   -4.388188743841238E-002
   GDM::trust : updated trust radius is        0.108900000000000     
   GDM:         diagonal hessian shift is      0.000000000000000E+000
   GDM::PreWSS: input subspace size is                 19
   GDM::PreWSS: working subspace size set to           18
   GDM::PrEWSS: # of linearly dependent vectors =            0
   GDM::PrEWSS: Max dev from orthonormality =   9.521161636882880E-012
   GDM::BFGS:   lowest Hinv e-value    0.141845039417369     
   GDM::BFGS:   highest Hinv e-value    3.93870473687913     
   GDM::      : max scaling in EWCs is          2.82842712474619     
   GDM::      : max rotation in step is       -0.110643921205394     
   GDM::        grad.step =  -2.025257936227141E-002
   ------- Leaving GDM -- hopefully with a step in the right direction! --------
 
   21    -289.7993699081      6.68E-02  Gap = 0.00 eV  Descent step
 
   ------------------- Entering Geometric Direct Minimization ------------------
   GDM::trust : actual energy change is        2.656299352202041E-002
   GDM::trust : predicted energy change was   -2.965720566743671E-002
   GDM::trust : updated trust radius is        0.108900000000000     
   GDM::search:  On step            1 .  The current bracket is:
       left   : x =  0.0000E+00, e =      -289.7993699081, g = -0.8389E-01
       current: x =  0.2414E+00, e =      -289.7728069146, g =  0.2039E+00
       right  : x =  0.1000E+04, e =      1000.0000000000, g =  0.1000E+04
       next   : x =  0.5222E-01
   GDM::      : max rotation in step is       -2.393247222140717E-002
   ------- Leaving GDM -- hopefully with a step in the right direction! --------
 
   22    -289.7728069146      1.63E-02  Gap = 0.00 eV  Line search: overstep
 
   ------------------- Entering Geometric Direct Minimization ------------------
   GDM::trust : actual energy change is       -5.833508150203670E-003
   GDM::trust : predicted energy change was   -2.965720566743671E-002
   GDM::trust : updated trust radius is        0.108900000000000     
   GDM:         diagonal hessian shift is      0.000000000000000E+000
   GDM::PreWSS: input subspace size is                 19
   GDM::PreWSS: working subspace size set to           18
   GDM::PrEWSS: # of linearly dependent vectors =            0
   GDM::PrEWSS: Max dev from orthonormality =   2.375059870995955E-011
   GDM::BFGS:   lowest Hinv e-value    0.133057703674585     
   GDM::BFGS:   highest Hinv e-value    3.90679720702912     
   GDM::trust : dogleg step length is          0.108900000000000     
   GDM::      : max scaling in EWCs is          2.82842712474619     
   GDM::      : max rotation in step is        0.145656961200169     
   GDM::        grad.step =  -8.325859058523406E-003
   ------- Leaving GDM -- hopefully with a step in the right direction! --------
 
   23    -289.8052034163      4.02E-02  Gap = 0.00 eV  Dog-leg BFGS step
 
   ------------------- Entering Geometric Direct Minimization ------------------
   GDM::trust : actual energy change is       -7.541998515876003E-003
   GDM::trust : predicted energy change was   -1.244072449379824E-002
   GDM::trust : updated trust radius is        0.108900000000000     
   GDM:         diagonal hessian shift is      0.000000000000000E+000
   GDM::PreWSS: input subspace size is                 19
   GDM::PreWSS: working subspace size set to           18
   GDM::PrEWSS: # of linearly dependent vectors =            0
   GDM::PrEWSS: Max dev from orthonormality =   2.331488127560455E-011
   GDM::BFGS:   lowest Hinv e-value    0.135229369566676     
   GDM::BFGS:   highest Hinv e-value    3.87735283557204     
   GDM::trust : dogleg step length is          0.108900000000000     
   GDM::      : max scaling in EWCs is          2.82842712474619     
   GDM::      : max rotation in step is       -0.155620160424658     
   GDM::        grad.step =  -7.815016626625017E-003
   ------- Leaving GDM -- hopefully with a step in the right direction! --------
 
   24    -289.8127454148      3.66E-02  Gap = 0.00 eV  Dog-leg BFGS step
 
   ------------------- Entering Geometric Direct Minimization ------------------
   GDM::trust : actual energy change is       -1.401985561705033E-002
   GDM::trust : predicted energy change was   -1.226420895319344E-002
   GDM::trust : updated trust radius is        0.217800000000000     
   GDM:         diagonal hessian shift is      0.000000000000000E+000
   GDM::PreWSS: input subspace size is                 19
   GDM::PreWSS: working subspace size set to           18
   GDM::PrEWSS: # of linearly dependent vectors =            0
   GDM::PrEWSS: Max dev from orthonormality =   3.826813865792644E-012
   GDM::BFGS:   lowest Hinv e-value    7.286231621178414E-002
   GDM::BFGS:   highest Hinv e-value    97.0142748210446     
   GDM::trust : dogleg step length is          0.217800000000000     
   GDM::      : max scaling in EWCs is          2.82842712474619     
   GDM::      : max rotation in step is        0.308980568782793     
   GDM::        grad.step =  -2.673269881008605E-002
   ------- Leaving GDM -- hopefully with a step in the right direction! --------
 
   25    -289.8267652704      8.59E-02  Gap = 0.00 eV  Dog-leg BFGS step
 
   ------------------- Entering Geometric Direct Minimization ------------------
   GDM::trust : actual energy change is       -3.082618520335245E-002
   GDM::trust : predicted energy change was   -9.602870187747735E-002
   GDM::trust : updated trust radius is        0.217800000000000     
   GDM:         diagonal hessian shift is      0.000000000000000E+000
   GDM::PreWSS: input subspace size is                 19
   GDM::PreWSS: working subspace size set to           18
   GDM::PrEWSS: # of linearly dependent vectors =            0
   GDM::PrEWSS: Max dev from orthonormality =   3.359607730901715E-012
   GDM::BFGS:   lowest Hinv e-value    9.725591478976317E-002
   GDM::BFGS:   highest Hinv e-value    73.2730871803180     
   GDM::      : max scaling in EWCs is          2.82842712474619     
   GDM::      : max rotation in step is       -0.193692512264181     
   GDM::        grad.step =  -9.493187537974222E-002
   ------- Leaving GDM -- hopefully with a step in the right direction! --------
 
   26    -289.8575914556      1.37E-01  Gap = 0.00 eV  Descent step
 
   ------------------- Entering Geometric Direct Minimization ------------------
   GDM::trust : actual energy change is        3.513014889773558E-002
   GDM::trust : predicted energy change was   -0.265134257624263     
   GDM::trust : updated trust radius is        0.108900000000000     
   GDM::search:  On step            1 .  The current bracket is:
       left   : x =  0.0000E+00, e =      -289.8575914556, g = -0.2211E+00
       current: x =  0.4294E+00, e =      -289.8224613067, g =  0.2921E+00
       right  : x =  0.1000E+04, e =      1000.0000000000, g =  0.1000E+04
       next   : x =  0.1567E+00
   GDM::      : max rotation in step is       -7.068778737836570E-002
   ------- Leaving GDM -- hopefully with a step in the right direction! --------
 
   27    -289.8224613067      6.70E-02  Gap = 19.92 eV  Line search: overstep
 
   ------------------- Entering Geometric Direct Minimization ------------------
   GDM::trust : actual energy change is       -3.923937269098587E-002
   GDM::trust : predicted energy change was   -0.265134257624263     
   GDM::trust : updated trust radius is        0.108900000000000     
   GDM:         diagonal hessian shift is      0.000000000000000E+000
   GDM::PreWSS: input subspace size is                 19
   GDM::PreWSS: working subspace size set to           18
   GDM::PrEWSS: # of linearly dependent vectors =            0
   GDM::PrEWSS: Max dev from orthonormality =   9.212144935766275E-013
   GDM::BFGS:   lowest Hinv e-value    0.133242454862167     
   GDM::BFGS:   highest Hinv e-value    68.7783521224962     
   GDM::      : max scaling in EWCs is          2.82842712474619     
   GDM::      : max rotation in step is        0.257466708073881     
   GDM::        grad.step =  -2.914419109451819E-002
   ------- Leaving GDM -- hopefully with a step in the right direction! --------
 
   28    -289.8968308283      2.24E-01  Gap = 0.00 eV  Descent step
 
   ------------------- Entering Geometric Direct Minimization ------------------
   GDM::trust : actual energy change is       -3.591988210160935E-002
   GDM::trust : predicted energy change was   -2.163330812468395E-002
   GDM::trust : updated trust radius is        0.330000000000000     
   GDM:         diagonal hessian shift is      0.000000000000000E+000
   GDM::PreWSS: input subspace size is                 19
   GDM::PreWSS: working subspace size set to           18
   GDM::PrEWSS: # of linearly dependent vectors =            0
   GDM::PrEWSS: Max dev from orthonormality =   6.553715903301338E-013
   GDM::BFGS:   lowest Hinv e-value    0.123723211281427     
   GDM::BFGS:   highest Hinv e-value    63.1087875610830     
   GDM::      : max scaling in EWCs is          2.82842712474619     
   GDM::      : max rotation in step is        0.320634972394322     
   GDM::        grad.step =  -0.120537373259309     
   ------- Leaving GDM -- hopefully with a step in the right direction! --------
 
   29    -289.9327507104      1.39E-01  Gap = 0.00 eV  Descent step
 
   ------------------- Entering Geometric Direct Minimization ------------------
   GDM::trust : actual energy change is        0.280342716821906     
   GDM::trust : predicted energy change was   -0.422264916437779     
   GDM::trust : updated trust radius is        0.108900000000000     
   GDM::search:  On step            1 .  The current bracket is:
       left   : x =  0.0000E+00, e =      -289.9327507104, g = -0.1676E+00
       current: x =  0.7194E+00, e =      -289.6524079936, g =  0.4975E+00
       right  : x =  0.1000E+04, e =      1000.0000000000, g =  0.1000E+04
       next   : x =  0.1082E+00
   GDM::      : max rotation in step is        4.820456079479121E-002
   ------- Leaving GDM -- hopefully with a step in the right direction! --------
 
   30    -289.6524079936      7.04E-02  Gap = 0.00 eV  Line search: overstep
 
   ------------------- Entering Geometric Direct Minimization ------------------
   GDM::trust : actual energy change is       -2.433230832042454E-002
   GDM::trust : predicted energy change was   -0.422264916437779     
   GDM::trust : updated trust radius is        0.108900000000000     
   GDM:         diagonal hessian shift is      0.000000000000000E+000
   GDM::PreWSS: input subspace size is                 19
   GDM::PreWSS: working subspace size set to           18
   GDM::PrEWSS: # of linearly dependent vectors =            0
   GDM::PrEWSS: Max dev from orthonormality =   3.422141042763727E-013
   GDM::BFGS:   lowest Hinv e-value    0.125237350971189     
   GDM::BFGS:   highest Hinv e-value    58.4711224477954     
   GDM::      : max scaling in EWCs is          2.82842712474619     
   GDM::      : max rotation in step is        0.204656277196076     
   GDM::        grad.step =  -2.375849221706744E-002
   ------- Leaving GDM -- hopefully with a step in the right direction! --------
 
   31    -289.9570830187      1.45E-01  Gap = 0.00 eV  Descent step
 
   ------------------- Entering Geometric Direct Minimization ------------------
   GDM::trust : actual energy change is       -4.220521523467369E-002
   GDM::trust : predicted energy change was   -1.414578443358237E-002
   GDM::trust : updated trust radius is        0.330000000000000     
   GDM:         diagonal hessian shift is      0.000000000000000E+000
   GDM::PreWSS: input subspace size is                 19
   GDM::PreWSS: working subspace size set to           18
   GDM::PrEWSS: # of linearly dependent vectors =            0
   GDM::PrEWSS: Max dev from orthonormality =   2.346733918301425E-013
   GDM::BFGS:   lowest Hinv e-value    0.144267417017351     
   GDM::BFGS:   highest Hinv e-value    62.3386039946022     
   GDM::trust : dogleg step length is          0.330000000000000     
   GDM::      : max scaling in EWCs is          2.82842712474619     
   GDM::      : max rotation in step is       -0.506322779121442     
   GDM::        grad.step =  -4.418720433724171E-002
   ------- Leaving GDM -- hopefully with a step in the right direction! --------
 
   32    -289.9992882339      1.10E-01  Gap = 0.00 eV  Dog-leg BFGS step
 
   ------------------- Entering Geometric Direct Minimization ------------------
   GDM::trust : actual energy change is        2.299387007008136E-002
   GDM::trust : predicted energy change was   -6.000773870621004E-002
   GDM::trust : updated trust radius is        0.108900000000000     
   GDM::search:  On step            1 .  The current bracket is:
       left   : x =  0.0000E+00, e =      -289.9992882339, g = -0.5778E-01
       current: x =  0.7648E+00, e =      -289.9762943639, g =  0.1053E+00
       right  : x =  0.1000E+04, e =      1000.0000000000, g =  0.1000E+04
       next   : x =  0.2515E+00
   GDM::      : max rotation in step is       -0.166512580358498     
   ------- Leaving GDM -- hopefully with a step in the right direction! --------
 
   33    -289.9762943639      4.97E-02  Gap = 0.00 eV  Line search: overstep
 
   ------------------- Entering Geometric Direct Minimization ------------------
   GDM::trust : actual energy change is       -1.903589809307960E-002
   GDM::trust : predicted energy change was   -6.000773870621004E-002
   GDM::trust : updated trust radius is        0.108900000000000     
   GDM:         diagonal hessian shift is      0.000000000000000E+000
   GDM::PreWSS: input subspace size is                 19
   GDM::PreWSS: working subspace size set to           18
   GDM::PrEWSS: # of linearly dependent vectors =            0
   GDM::PrEWSS: Max dev from orthonormality =   6.233936977739774E-013
   GDM::BFGS:   lowest Hinv e-value    0.155262929598412     
   GDM::BFGS:   highest Hinv e-value    26.5316888015613     
   GDM::      : max scaling in EWCs is          2.82842712474619     
   GDM::      : max rotation in step is        0.155618166308784     
   GDM::        grad.step =  -1.678254148379911E-002
   ------- Leaving GDM -- hopefully with a step in the right direction! --------
 
   34    -290.0183241320      9.24E-02  Gap = 0.00 eV  Descent step
 
   ------------------- Entering Geometric Direct Minimization ------------------
   GDM::trust : actual energy change is       -3.114178160956271E-003
   GDM::trust : predicted energy change was   -2.660711063771080E-002
   GDM::trust : updated trust radius is        0.330000000000000     
   GDM:         diagonal hessian shift is      0.000000000000000E+000
   GDM::PreWSS: input subspace size is                 19
   GDM::PreWSS: working subspace size set to           18
   GDM::PrEWSS: # of linearly dependent vectors =            0
   GDM::PrEWSS: Max dev from orthonormality =   4.231164030255030E-013
   GDM::BFGS:   lowest Hinv e-value    0.144732081487903     
   GDM::BFGS:   highest Hinv e-value    31.2702746910390     
   GDM::trust : dogleg step length is          0.330000000000000     
   GDM::      : max scaling in EWCs is          2.82842712474619     
   GDM::      : max rotation in step is        0.366959157201563     
   GDM::        grad.step =  -0.105213884359090     
   ------- Leaving GDM -- hopefully with a step in the right direction! --------
 
   35    -290.0214383102      1.40E-01  Gap = 0.00 eV  Dog-leg BFGS step
 
   ------------------- Entering Geometric Direct Minimization ------------------
   GDM::trust : actual energy change is        0.407931613769961     
   GDM::trust : predicted energy change was   -0.364315903615088     
   GDM::trust : updated trust radius is        0.108900000000000     
   GDM::search:  On step            1 .  The current bracket is:
       left   : x =  0.0000E+00, e =      -290.0214383102, g = -0.1586E+00
       current: x =  0.6634E+00, e =      -289.6135066964, g =  0.6762E+00
       right  : x =  0.1000E+04, e =      1000.0000000000, g =  0.1000E+04
       next   : x =  0.6802E-01
   GDM::      : max rotation in step is        3.762012769388508E-002
   ------- Leaving GDM -- hopefully with a step in the right direction! --------
 
   36    -289.6135066964      7.32E-02  Gap = 0.00 eV  Line search: overstep
 
   ------------------- Entering Geometric Direct Minimization ------------------
   GDM::trust : actual energy change is       -1.461244061653133E-002
   GDM::trust : predicted energy change was   -0.364315903615088     
   GDM::trust : updated trust radius is        0.108900000000000     
   GDM:         diagonal hessian shift is      0.000000000000000E+000
   GDM::PreWSS: input subspace size is                 19
   GDM::PreWSS: working subspace size set to           18
   GDM::PrEWSS: # of linearly dependent vectors =            0
   GDM::PrEWSS: Max dev from orthonormality =   1.079365763434481E-012
   GDM::BFGS:   lowest Hinv e-value    0.148646882599679     
   GDM::BFGS:   highest Hinv e-value    27.1553686407377     
   GDM::      : max scaling in EWCs is          2.82842712474619     
   GDM::      : max rotation in step is       -9.336670577539959E-002
   GDM::        grad.step =  -1.344230547116512E-002
   ------- Leaving GDM -- hopefully with a step in the right direction! --------
 
   37    -290.0360507508      3.74E-02  Gap = 0.00 eV  Descent step
 
   ------------------- Entering Geometric Direct Minimization ------------------
   GDM::trust : actual energy change is        2.301016551871271E-002
   GDM::trust : predicted energy change was   -3.667475127785012E-002
   GDM::trust : updated trust radius is        0.108900000000000     
   GDM::search:  On step            1 .  The current bracket is:
       left   : x =  0.0000E+00, e =      -290.0360507508, g = -0.6544E-01
       current: x =  0.2054E+00, e =      -290.0130405853, g =  0.1728E+00
       right  : x =  0.1000E+04, e =      1000.0000000000, g =  0.1000E+04
       next   : x =  0.3788E-01
   GDM::      : max rotation in step is       -1.721507137633859E-002
   ------- Leaving GDM -- hopefully with a step in the right direction! --------
 
   38    -290.0130405853      1.12E-02  Gap = 0.00 eV  Line search: overstep
 
   ------------------- Entering Geometric Direct Minimization ------------------
   GDM::trust : actual energy change is       -3.219685984163334E-003
   GDM::trust : predicted energy change was   -3.667475127785012E-002
   GDM::trust : updated trust radius is        0.108900000000000     
   GDM:         diagonal hessian shift is      0.000000000000000E+000
   GDM::PreWSS: input subspace size is                 19
   GDM::PreWSS: working subspace size set to           18
   GDM::PrEWSS: # of linearly dependent vectors =            0
   GDM::PrEWSS: Max dev from orthonormality =   7.977021820870789E-013
   GDM::BFGS:   lowest Hinv e-value    0.152817415588943     
   GDM::BFGS:   highest Hinv e-value    27.4349973271371     
   GDM::trust : dogleg step length is          0.108900000000000     
   GDM::      : max scaling in EWCs is          2.82842712474619     
   GDM::      : max rotation in step is        0.184976611289709     
   GDM::        grad.step =  -5.751518332785885E-003
   ------- Leaving GDM -- hopefully with a step in the right direction! --------
 
   39    -290.0392704368      3.68E-02  Gap = 0.00 eV  Dog-leg BFGS step
 
   ------------------- Entering Geometric Direct Minimization ------------------
   GDM::trust : actual energy change is       -2.700061859343350E-003
   GDM::trust : predicted energy change was   -7.532112168890446E-003
   GDM::trust : updated trust radius is        0.108900000000000     
   GDM:         diagonal hessian shift is      0.000000000000000E+000
   GDM::PreWSS: input subspace size is                 19
   GDM::PreWSS: working subspace size set to           18
   GDM::PrEWSS: # of linearly dependent vectors =            0
   GDM::PrEWSS: Max dev from orthonormality =   4.035037928784568E-012
   GDM::BFGS:   lowest Hinv e-value    0.152130954067786     
   GDM::BFGS:   highest Hinv e-value    11.2829927326699     
   GDM::trust : dogleg step length is          0.108900000000000     
   GDM::      : max scaling in EWCs is          2.82842712474619     
   GDM::      : max rotation in step is       -0.193650063384767     
   GDM::        grad.step =  -5.333257882783739E-003
   ------- Leaving GDM -- hopefully with a step in the right direction! --------
 
   40    -290.0419704987      2.52E-02  Gap = 0.00 eV  Dog-leg BFGS step
 
   ------------------- Entering Geometric Direct Minimization ------------------
   GDM::trust : actual energy change is        1.598977389676293E-003
   GDM::trust : predicted energy change was   -8.993508750354687E-003
   GDM::trust : updated trust radius is        3.593700000000000E-002
   GDM::search:  On step            1 .  The current bracket is:
       left   : x =  0.0000E+00, e =      -290.0419704987, g = -0.2175E-01
       current: x =  0.2452E+00, e =      -290.0403715213, g =  0.2861E-01
       right  : x =  0.1000E+04, e =      1000.0000000000, g =  0.1000E+04
       next   : x =  0.9434E-01
   GDM::      : max rotation in step is       -7.449153746637584E-002
   ------- Leaving GDM -- hopefully with a step in the right direction! --------
 
   41    -290.0403715213      6.92E-03  Gap = 0.00 eV  Line search: overstep
 
   ------------------- Entering Geometric Direct Minimization ------------------
   GDM::trust : actual energy change is       -2.308103909626880E-003
   GDM::trust : predicted energy change was   -8.993508750354687E-003
   GDM::trust : updated trust radius is        3.593700000000000E-002
   GDM:         diagonal hessian shift is      0.000000000000000E+000
   GDM::PreWSS: input subspace size is                 19
   GDM::PreWSS: working subspace size set to           18
   GDM::PrEWSS: # of linearly dependent vectors =            0
   GDM::PrEWSS: Max dev from orthonormality =   2.243503993692997E-012
   GDM::BFGS:   lowest Hinv e-value    0.145642394089602     
   GDM::BFGS:   highest Hinv e-value    6.37875590695853     
   GDM::      : max scaling in EWCs is          2.82842712474619     
   GDM::      : max rotation in step is       -3.367964145992501E-002
   GDM::        grad.step =  -2.183891758757116E-003
   ------- Leaving GDM -- hopefully with a step in the right direction! --------
 
   42    -290.0442786026      2.01E-02  Gap = 0.00 eV  Descent step
 
   ------------------- Entering Geometric Direct Minimization ------------------
   GDM::trust : actual energy change is        1.705816734670407E-003
   GDM::trust : predicted energy change was   -4.107545249083018E-003
   GDM::trust : updated trust radius is        0.108900000000000     
   GDM::search:  On step            1 .  The current bracket is:
       left   : x =  0.0000E+00, e =      -290.0442786026, g = -0.3253E-01
       current: x =  0.6713E-01, e =      -290.0425727858, g =  0.5808E-01
       right  : x =  0.1000E+04, e =      1000.0000000000, g =  0.1000E+04
       next   : x =  0.1885E-01
   GDM::      : max rotation in step is       -9.454781964574901E-003
   ------- Leaving GDM -- hopefully with a step in the right direction! --------
 
   43    -290.0425727858      5.65E-03  Gap = 0.00 eV  Line search: overstep
 
   ------------------- Entering Geometric Direct Minimization ------------------
   GDM::trust : actual energy change is       -7.488483156521397E-004
   GDM::trust : predicted energy change was   -4.107545249083018E-003
   GDM::trust : updated trust radius is        0.108900000000000     
   GDM:         diagonal hessian shift is      0.000000000000000E+000
   GDM::PreWSS: input subspace size is                 19
   GDM::PreWSS: working subspace size set to           18
   GDM::PrEWSS: # of linearly dependent vectors =            0
   GDM::PrEWSS: Max dev from orthonormality =   6.335612590113726E-012
   GDM::BFGS:   lowest Hinv e-value    0.156454826888883     
   GDM::BFGS:   highest Hinv e-value    6.68543148613165     
   GDM::      : max scaling in EWCs is          2.82842712474619     
   GDM::      : max rotation in step is       -0.143642279229680     
   GDM::        grad.step =  -1.372172101054693E-003
   ------- Leaving GDM -- hopefully with a step in the right direction! --------
 
   44    -290.0450274509      1.71E-02  Gap = 0.00 eV  Normal BFGS step
 
   ------------------- Entering Geometric Direct Minimization ------------------
   GDM::trust : actual energy change is       -6.538693104971571E-004
   GDM::trust : predicted energy change was   -2.058258151582040E-003
   GDM::trust : updated trust radius is        0.330000000000000     
   GDM:         diagonal hessian shift is      0.000000000000000E+000
   GDM::PreWSS: input subspace size is                 19
   GDM::PreWSS: working subspace size set to           18
   GDM::PrEWSS: # of linearly dependent vectors =            0
   GDM::PrEWSS: Max dev from orthonormality =   8.677038254578662E-012
   GDM::BFGS:   lowest Hinv e-value    0.154422516930286     
   GDM::BFGS:   highest Hinv e-value    6.01720836989625     
   GDM::      : max scaling in EWCs is          2.82842712474619     
   GDM::      : max rotation in step is       -0.150828297427147     
   GDM::        grad.step =  -3.037923313665023E-003
   ------- Leaving GDM -- hopefully with a step in the right direction! --------
 
   45    -290.0456813202      1.42E-02  Gap = 0.00 eV  Normal BFGS step
 
   ------------------- Entering Geometric Direct Minimization ------------------
   GDM::trust : actual energy change is        7.359100944654529E-003
   GDM::trust : predicted energy change was   -4.556884970497536E-003
   GDM::trust : updated trust radius is        0.108900000000000     
   GDM::search:  On step            1 .  The current bracket is:
       left   : x =  0.0000E+00, e =      -290.0456813202, g = -0.1565E-01
       current: x =  0.1941E+00, e =      -290.0383222192, g =  0.5232E-01
       right  : x =  0.1000E+04, e =      1000.0000000000, g =  0.1000E+04
       next   : x =  0.2836E-01
   GDM::      : max rotation in step is       -2.203538193861976E-002
   ------- Leaving GDM -- hopefully with a step in the right direction! --------
 
   46    -290.0383222192      5.41E-03  Gap = 0.00 eV  Line search: overstep
 
   ------------------- Entering Geometric Direct Minimization ------------------
   GDM::trust : actual energy change is       -5.927634003910498E-004
   GDM::trust : predicted energy change was   -4.556884970497536E-003
   GDM::trust : updated trust radius is        0.108900000000000     
   GDM:         diagonal hessian shift is      0.000000000000000E+000
   GDM::PreWSS: input subspace size is                 19
   GDM::PreWSS: working subspace size set to           18
   GDM::PrEWSS: # of linearly dependent vectors =            0
   GDM::PrEWSS: Max dev from orthonormality =   4.148341392617994E-012
   GDM::BFGS:   lowest Hinv e-value    0.148562989983238     
   GDM::BFGS:   highest Hinv e-value    4.44855598118861     
   GDM::      : max scaling in EWCs is          2.82842712474619     
   GDM::      : max rotation in step is       -4.370225815203362E-002
   GDM::        grad.step =  -1.037836499793586E-003
   ------- Leaving GDM -- hopefully with a step in the right direction! --------
 
   47    -290.0462740836      1.00E-02  Gap = 0.00 eV  Normal BFGS step
 
   ------------------- Entering Geometric Direct Minimization ------------------
   GDM::trust : actual energy change is       -6.357379064638735E-004
   GDM::trust : predicted energy change was   -1.556754749690379E-003
   GDM::trust : updated trust radius is        0.330000000000000     
   GDM:         diagonal hessian shift is      0.000000000000000E+000
   GDM::PreWSS: input subspace size is                 19
   GDM::PreWSS: working subspace size set to           18
   GDM::PrEWSS: # of linearly dependent vectors =            0
   GDM::PrEWSS: Max dev from orthonormality =   6.481482017761664E-012
   GDM::BFGS:   lowest Hinv e-value    0.148317915743387     
   GDM::BFGS:   highest Hinv e-value    4.92019733293315     
   GDM::      : max scaling in EWCs is          2.82842712474619     
   GDM::      : max rotation in step is       -6.872736699392948E-002
   GDM::        grad.step =  -9.735956302328636E-004
   ------- Leaving GDM -- hopefully with a step in the right direction! --------
 
   48    -290.0469098215      8.66E-03  Gap = 0.00 eV  Normal BFGS step
 
   ------------------- Entering Geometric Direct Minimization ------------------
   GDM::trust : actual energy change is        8.184224623164482E-005
   GDM::trust : predicted energy change was   -1.460393445349295E-003
   GDM::trust : updated trust radius is        0.108900000000000     
   GDM::search:  On step            1 .  The current bracket is:
       left   : x =  0.0000E+00, e =      -290.0469098215, g = -0.1023E-01
       current: x =  0.9518E-01, e =      -290.0468279793, g =  0.1105E-01
       right  : x =  0.1000E+04, e =      1000.0000000000, g =  0.1000E+04
       next   : x =  0.4390E-01
   GDM::      : max rotation in step is       -3.169900648574563E-002
   ------- Leaving GDM -- hopefully with a step in the right direction! --------
 
   49    -290.0468279793      1.54E-03  Gap = 0.00 eV  Line search: overstep
 
   ------------------- Entering Geometric Direct Minimization ------------------
   GDM::trust : actual energy change is       -4.656455809595172E-004
   GDM::trust : predicted energy change was   -1.460393445349295E-003
   GDM::trust : updated trust radius is        0.108900000000000     
   GDM:         diagonal hessian shift is      0.000000000000000E+000
   GDM::PreWSS: input subspace size is                 19
   GDM::PreWSS: working subspace size set to           18
   GDM::PrEWSS: # of linearly dependent vectors =            0
   GDM::PrEWSS: Max dev from orthonormality =   6.314865297341044E-012
   GDM::BFGS:   lowest Hinv e-value    0.148009551569734     
   GDM::BFGS:   highest Hinv e-value    5.31630080292326     
   GDM::      : max scaling in EWCs is          2.82842712474619     
   GDM::      : max rotation in step is       -4.955969707630033E-002
   GDM::        grad.step =  -2.068820898363766E-004
   ------- Leaving GDM -- hopefully with a step in the right direction! --------
 
   50    -290.0473754671      4.99E-03  Gap = 0.00 eV  Normal BFGS step
 
   ------------------- Entering Geometric Direct Minimization ------------------
   GDM::trust : actual energy change is       -2.342230217209362E-004
   GDM::trust : predicted energy change was   -3.103231347545652E-004
   GDM::trust : updated trust radius is        0.330000000000000     
   GDM:         diagonal hessian shift is      0.000000000000000E+000
   GDM::PreWSS: input subspace size is                 19
   GDM::PreWSS: working subspace size set to           18
   GDM::PrEWSS: # of linearly dependent vectors =            0
   GDM::PrEWSS: Max dev from orthonormality =   2.878017268947985E-012
   GDM::BFGS:   lowest Hinv e-value    0.150663873196221     
   GDM::BFGS:   highest Hinv e-value    6.60119485666804     
   GDM::      : max scaling in EWCs is          2.82842712474619     
   GDM::      : max rotation in step is       -2.389555757490442E-002
   GDM::        grad.step =  -7.946415175910966E-005
   ------- Leaving GDM -- hopefully with a step in the right direction! --------
 
   51    -290.0476096901      4.59E-03  Gap = 0.00 eV  Normal BFGS step
 
   ------------------- Entering Geometric Direct Minimization ------------------
   GDM::trust : actual energy change is       -9.412816149279024E-005
   GDM::trust : predicted energy change was   -1.191962276386644E-004
   GDM::trust : updated trust radius is        0.330000000000000     
   GDM:         diagonal hessian shift is      0.000000000000000E+000
   GDM::PreWSS: input subspace size is                 19
   GDM::PreWSS: working subspace size set to           18
   GDM::PrEWSS: # of linearly dependent vectors =            0
   GDM::PrEWSS: Max dev from orthonormality =   2.925638897810501E-012
   GDM::BFGS:   lowest Hinv e-value    0.150995184576239     
   GDM::BFGS:   highest Hinv e-value    8.76804151968655     
   GDM::      : max scaling in EWCs is          2.82842712474619     
   GDM::      : max rotation in step is       -3.351826448877399E-002
   GDM::        grad.step =  -4.630194028019447E-005
   ------- Leaving GDM -- hopefully with a step in the right direction! --------
 
   52    -290.0477038183      1.80E-03  Gap = 0.00 eV  Normal BFGS step
 
   ------------------- Entering Geometric Direct Minimization ------------------
   GDM::trust : actual energy change is       -3.742977253295976E-005
   GDM::trust : predicted energy change was   -6.945291042029168E-005
   GDM::trust : updated trust radius is        0.330000000000000     
   GDM:         diagonal hessian shift is      0.000000000000000E+000
   GDM::PreWSS: input subspace size is                 19
   GDM::PreWSS: working subspace size set to           18
   GDM::PrEWSS: # of linearly dependent vectors =            0
   GDM::PrEWSS: Max dev from orthonormality =   6.802109223102981E-011
   GDM::BFGS:   lowest Hinv e-value    0.151355495288320     
   GDM::BFGS:   highest Hinv e-value    12.1459801677931     
   GDM::      : max scaling in EWCs is          2.82842712474619     
   GDM::      : max rotation in step is       -2.701904231815420E-002
   GDM::        grad.step =  -3.928666543735096E-005
   ------- Leaving GDM -- hopefully with a step in the right direction! --------
 
   53    -290.0477412480      2.19E-03  Gap = 64.62 eV  Normal BFGS step
 
   ------------------- Entering Geometric Direct Minimization ------------------
   GDM::trust : actual energy change is       -9.829668954353110E-006
   GDM::trust : predicted energy change was   -5.892999815602644E-005
   GDM::trust : updated trust radius is        0.330000000000000     
   GDM:         diagonal hessian shift is      0.000000000000000E+000
   GDM::PreWSS: input subspace size is                 19
   GDM::PreWSS: working subspace size set to           18
   GDM::PrEWSS: # of linearly dependent vectors =            0
   GDM::PrEWSS: Max dev from orthonormality =   1.534498136196438E-011
   GDM::BFGS:   lowest Hinv e-value    0.150001193396860     
   GDM::BFGS:   highest Hinv e-value    9.84309523089405     
   GDM::      : max scaling in EWCs is          2.82842712474619     
   GDM::      : max rotation in step is        1.315827141724470E-002
   GDM::        grad.step =  -2.437131801815780E-005
   ------- Leaving GDM -- hopefully with a step in the right direction! --------
 
   54    -290.0477510777      2.15E-03  Gap = 21.33 eV  Normal BFGS step
 
   ------------------- Entering Geometric Direct Minimization ------------------
   GDM::trust : actual energy change is       -2.865925301875905E-005
   GDM::trust : predicted energy change was   -3.655697702723669E-005
   GDM::trust : updated trust radius is        0.330000000000000     
   GDM:         diagonal hessian shift is      0.000000000000000E+000
   GDM::PreWSS: input subspace size is                 19
   GDM::PreWSS: working subspace size set to           18
   GDM::PrEWSS: # of linearly dependent vectors =            0
   GDM::PrEWSS: Max dev from orthonormality =   1.007991815016318E-010
   GDM::BFGS:   lowest Hinv e-value    0.148393346800230     
   GDM::BFGS:   highest Hinv e-value    8.50828851720236     
   GDM::      : max scaling in EWCs is          2.82842712474619     
   GDM::      : max rotation in step is       -1.054999991816684E-002
   GDM::        grad.step =  -1.216227777182978E-005
   ------- Leaving GDM -- hopefully with a step in the right direction! --------
 
   55    -290.0477797370      2.15E-03  Gap = 21.33 eV  Normal BFGS step
 
   ------------------- Entering Geometric Direct Minimization ------------------
   GDM::trust : actual energy change is       -2.111718174546695E-005
   GDM::trust : predicted energy change was   -1.824341665774467E-005
   GDM::trust : updated trust radius is        0.330000000000000     
   GDM:         diagonal hessian shift is      0.000000000000000E+000
   GDM::PreWSS: input subspace size is                 19
   GDM::PreWSS: working subspace size set to           18
   GDM::PrEWSS: # of linearly dependent vectors =            0
   GDM::PrEWSS: Max dev from orthonormality =   5.728580110275772E-011
   GDM::BFGS:   lowest Hinv e-value    0.119776557297813     
   GDM::BFGS:   highest Hinv e-value    26.8636869664590     
   GDM::      : max scaling in EWCs is          2.82842712474619     
   GDM::      : max rotation in step is       -0.142407488449913     
   GDM::        grad.step =  -1.392068117528230E-004
   ------- Leaving GDM -- hopefully with a step in the right direction! --------
 
   56    -290.0478008541      2.40E-03  Gap = 21.33 eV  Normal BFGS step
 
   ------------------- Entering Geometric Direct Minimization ------------------
   GDM::trust : actual energy change is       -2.461752661133687E-004
   GDM::trust : predicted energy change was   -2.088102176292345E-004
   GDM::trust : updated trust radius is        0.330000000000000     
   GDM:         diagonal hessian shift is      0.000000000000000E+000
   GDM::PreWSS: input subspace size is                 19
   GDM::PreWSS: working subspace size set to           18
   GDM::PrEWSS: # of linearly dependent vectors =            0
   GDM::PrEWSS: Max dev from orthonormality =   4.599531519544620E-011
   GDM::BFGS:   lowest Hinv e-value    5.396715089524955E-002
   GDM::BFGS:   highest Hinv e-value    89.4442056131639     
   GDM::      : max scaling in EWCs is          2.82842712474619     
   GDM::      : max rotation in step is       -0.375067167751959     
   GDM::        grad.step =  -3.703810919356813E-004
   ------- Leaving GDM -- hopefully with a step in the right direction! --------
 
   57    -290.0480470294      1.12E-02  Gap = 21.33 eV  Normal BFGS step
 
   ------------------- Entering Geometric Direct Minimization ------------------
   GDM::trust : actual energy change is        4.739367492220481E-003
   GDM::trust : predicted energy change was   -5.555716379035206E-004
   GDM::trust : updated trust radius is        0.108900000000000     
   GDM::search:  On step            1 .  The current bracket is:
       left   : x =  0.0000E+00, e =      -290.0480470294, g = -0.8619E-03
       current: x =  0.4297E+00, e =      -290.0433076619, g =  0.1708E-01
       right  : x =  0.1000E+04, e =      1000.0000000000, g =  0.1000E+04
       next   : x =  0.4297E-01
   GDM::      : max rotation in step is       -3.750671677519589E-002
   ------- Leaving GDM -- hopefully with a step in the right direction! --------
 
   58    -290.0433076619      4.81E-03  Gap = 21.33 eV  Line search: overstep
 
   ------------------- Entering Geometric Direct Minimization ------------------
   GDM::trust : actual energy change is       -5.972218440319921E-005
   GDM::trust : predicted energy change was   -5.555716379035206E-004
   GDM::trust : updated trust radius is        0.108900000000000     
   GDM:         diagonal hessian shift is      0.000000000000000E+000
   GDM::PreWSS: input subspace size is                 19
   GDM::PreWSS: working subspace size set to           18
   GDM::PrEWSS: # of linearly dependent vectors =            0
   GDM::PrEWSS: Max dev from orthonormality =   5.820200259243347E-010
   GDM::BFGS:   lowest Hinv e-value    4.791553333430041E-002
   GDM::BFGS:   highest Hinv e-value    28.5232026880908     
   GDM::      : max scaling in EWCs is          2.82842712474619     
   GDM::      : max rotation in step is       -0.202264660959149     
   GDM::        grad.step =  -3.838865183859153E-004
   ------- Leaving GDM -- hopefully with a step in the right direction! --------
 
   59    -290.0481067516      1.52E-02  Gap = 21.33 eV  Normal BFGS step
 
   ------------------- Entering Geometric Direct Minimization ------------------
   GDM::trust : actual energy change is       -3.245890456469169E-004
   GDM::trust : predicted energy change was   -5.758297775788715E-004
   GDM::trust : updated trust radius is        0.330000000000000     
   GDM:         diagonal hessian shift is      0.000000000000000E+000
   GDM::PreWSS: input subspace size is                 19
   GDM::PreWSS: working subspace size set to           18
   GDM::PrEWSS: # of linearly dependent vectors =            0
   GDM::PrEWSS: Max dev from orthonormality =   3.436694748226721E-010
   GDM::BFGS:   lowest Hinv e-value    5.112550215136067E-002
   GDM::BFGS:   highest Hinv e-value    17.5108773892699     
   GDM::      : max scaling in EWCs is          2.82842712474619     
   GDM::      : max rotation in step is       -3.256033685599782E-002
   GDM::        grad.step =  -6.541225437002426E-004
   ------- Leaving GDM -- hopefully with a step in the right direction! --------
 
   60    -290.0484313406      3.84E-02  Gap = 21.33 eV  Normal BFGS step
 
   ------------------- Entering Geometric Direct Minimization ------------------
   GDM::trust : actual energy change is       -1.236017831729441E-003
   GDM::trust : predicted energy change was   -9.811838155503634E-004
   GDM::trust : updated trust radius is        0.330000000000000     
   GDM:         diagonal hessian shift is      0.000000000000000E+000
   GDM::PreWSS: input subspace size is                 19
   GDM::PreWSS: working subspace size set to           18
   GDM::PrEWSS: # of linearly dependent vectors =            1
   GDM::PrEWSS: Max dev from orthonormality =   1.922711503898888E-010
   GDM::BFGS:   lowest Hinv e-value    0.132353935047921     
   GDM::BFGS:   highest Hinv e-value    55.9344055193071     
   GDM::trust : dogleg step length is          0.330000000000000     
   GDM::      : max scaling in EWCs is          2.82842712474619     
   GDM::      : max rotation in step is       -0.678723814237785     
   GDM::        grad.step =  -1.262139087174568E-002
   ------- Leaving GDM -- hopefully with a step in the right direction! --------
 
   61    -290.0496673585      3.34E-02  Gap = 21.33 eV  Dog-leg BFGS step
 
   ------------------- Entering Geometric Direct Minimization ------------------
   GDM::trust : actual energy change is        1.331771158976380E-002
   GDM::trust : predicted energy change was   -2.617085784641961E-002
   GDM::trust : updated trust radius is        0.108900000000000     
   GDM::search:  On step            1 .  The current bracket is:
       left   : x =  0.0000E+00, e =      -290.0496673585, g = -0.1448E-01
       current: x =  0.8719E+00, e =      -290.0363496469, g =  0.4551E-01
       right  : x =  0.1000E+04, e =      1000.0000000000, g =  0.1000E+04
       next   : x =  0.2121E+00
   GDM::      : max rotation in step is       -0.165125963131700     
   ------- Leaving GDM -- hopefully with a step in the right direction! --------
 
   62    -290.0363496469      1.98E-02  Gap = 21.33 eV  Line search: overstep
 
   ------------------- Entering Geometric Direct Minimization ------------------
   GDM::trust : actual energy change is       -4.762876285781203E-003
   GDM::trust : predicted energy change was   -2.617085784641961E-002
   GDM::trust : updated trust radius is        0.108900000000000     
   GDM:         diagonal hessian shift is      0.000000000000000E+000
   GDM::PreWSS: input subspace size is                 19
   GDM::PreWSS: working subspace size set to           18
   GDM::PrEWSS: # of linearly dependent vectors =            0
   GDM::PrEWSS: Max dev from orthonormality =   2.881244531155458E-010
   GDM::BFGS:   lowest Hinv e-value    0.126762121919221     
   GDM::BFGS:   highest Hinv e-value    59.9063101997539     
   GDM::trust : dogleg step length is          0.108900000000000     
   GDM::      : max scaling in EWCs is          2.82842712474619     
   GDM::      : max rotation in step is       -0.226730756572128     
   GDM::        grad.step =  -3.571229833295175E-003
   ------- Leaving GDM -- hopefully with a step in the right direction! --------
 
   63    -290.0544302348      2.61E-02  Gap = 21.33 eV  Dog-leg BFGS step
 
   ------------------- Entering Geometric Direct Minimization ------------------
   GDM::trust : actual energy change is       -3.740835016799338E-003
   GDM::trust : predicted energy change was   -5.940179479002582E-003
   GDM::trust : updated trust radius is        0.108900000000000     
   GDM:         diagonal hessian shift is      0.000000000000000E+000
   GDM::PreWSS: input subspace size is                 19
   GDM::PreWSS: working subspace size set to           18
   GDM::PrEWSS: # of linearly dependent vectors =            0
   GDM::PrEWSS: Max dev from orthonormality =   1.861134198144487E-010
   GDM::BFGS:   lowest Hinv e-value    0.148587797605556     
   GDM::BFGS:   highest Hinv e-value    40.8289104819990     
   GDM::trust : dogleg step length is          0.108900000000000     
   GDM::      : max scaling in EWCs is          2.82842712474619     
   GDM::      : max rotation in step is       -6.458509358915900E-002
   GDM::        grad.step =  -1.180981304756976E-002
   ------- Leaving GDM -- hopefully with a step in the right direction! --------
 
   64    -290.0581710698      2.89E-02  Gap = 21.33 eV  Dog-leg BFGS step
 
   ------------------- Entering Geometric Direct Minimization ------------------
   GDM::trust : actual energy change is        4.021559583827639E-002
   GDM::trust : predicted energy change was   -4.601645546848934E-002
   GDM::trust : updated trust radius is        3.593700000000000E-002
   GDM::search:  On step            1 .  The current bracket is:
       left   : x =  0.0000E+00, e =      -290.0581710698, g = -0.5954E-01
       current: x =  0.1983E+00, e =      -290.0179554739, g =  0.2587E+00
       right  : x =  0.1000E+04, e =      1000.0000000000, g =  0.1000E+04
       next   : x =  0.2251E-01
   GDM::      : max rotation in step is       -7.330436197256605E-003
   ------- Leaving GDM -- hopefully with a step in the right direction! --------
 
   65    -290.0179554739      1.65E-02  Gap = 21.33 eV  Line search: overstep
 
   ------------------- Entering Geometric Direct Minimization ------------------
   GDM::trust : actual energy change is       -1.848858583286983E-003
   GDM::trust : predicted energy change was   -4.601645546848934E-002
   GDM::trust : updated trust radius is        3.593700000000000E-002
   GDM:         diagonal hessian shift is      0.000000000000000E+000
   GDM::PreWSS: input subspace size is                 19
   GDM::PreWSS: working subspace size set to           18
   GDM::PrEWSS: # of linearly dependent vectors =            0
   GDM::PrEWSS: Max dev from orthonormality =   1.724963661492440E-010
   GDM::BFGS:   lowest Hinv e-value    0.145172885017923     
   GDM::BFGS:   highest Hinv e-value    41.1810559272194     
   GDM::      : max scaling in EWCs is          2.82842712474619     
   GDM::      : max rotation in step is       -3.686692931910772E-002
   GDM::        grad.step =  -1.734356116809099E-003
   ------- Leaving GDM -- hopefully with a step in the right direction! --------
 
   66    -290.0600199284      1.75E-02  Gap = 21.33 eV  Descent step
 
   ------------------- Entering Geometric Direct Minimization ------------------
   GDM::trust : actual energy change is       -2.122674089832799E-004
   GDM::trust : predicted energy change was   -3.044094108912228E-003
   GDM::trust : updated trust radius is        0.330000000000000     
   GDM:         diagonal hessian shift is      0.000000000000000E+000
   GDM::PreWSS: input subspace size is                 19
   GDM::PreWSS: working subspace size set to           18
   GDM::PrEWSS: # of linearly dependent vectors =            0
   GDM::PrEWSS: Max dev from orthonormality =   2.578099816963331E-010
   GDM::BFGS:   lowest Hinv e-value    0.127877426876254     
   GDM::BFGS:   highest Hinv e-value    43.4347435786583     
   GDM::trust : dogleg step length is          0.330000000000000     
   GDM::      : max scaling in EWCs is          2.82842712474619     
   GDM::      : max rotation in step is       -0.628856434473596     
   GDM::        grad.step =  -1.140549472635483E-002
   ------- Leaving GDM -- hopefully with a step in the right direction! --------
 
   67    -290.0602321958      4.88E-02  Gap = 21.33 eV  Dog-leg BFGS step
 
   ------------------- Entering Geometric Direct Minimization ------------------
   GDM::trust : actual energy change is        1.752045962160764E-002
   GDM::trust : predicted energy change was   -2.355178467307109E-002
   GDM::trust : updated trust radius is        0.108900000000000     
   GDM::search:  On step            1 .  The current bracket is:
       left   : x =  0.0000E+00, e =      -290.0602321958, g = -0.1262E-01
       current: x =  0.9037E+00, e =      -290.0427117361, g =  0.4098E-01
       right  : x =  0.1000E+04, e =      1000.0000000000, g =  0.1000E+04
       next   : x =  0.1782E+00
   GDM::      : max rotation in step is       -0.123978947431481     
   ------- Leaving GDM -- hopefully with a step in the right direction! --------
 
[...]
   GDM::trust : updated trust radius is        0.330000000000000     
   GDM:         diagonal hessian shift is      0.000000000000000E+000
   GDM::PreWSS: input subspace size is                  7
   GDM::PreWSS: working subspace size set to            7
   GDM::PrEWSS: # of linearly dependent vectors =            6
   GDM::PrEWSS: Max dev from orthonormality =   2.359223927328458E-015
   GDM::BFGS:   lowest Hinv e-value    0.155109799182471     
   GDM::BFGS:   highest Hinv e-value    1.54569916255382     
   GDM::      : max scaling in EWCs is          2.82842712474619     
   GDM::      : max rotation in step is        2.175754401780913E-005
   GDM::        grad.step =  -1.863557538572135E-010
   ------- Leaving GDM -- hopefully with a step in the right direction! --------
 
   10    -290.1626029820      5.68E-06  Gap = 0.01 eV  Normal BFGS step
 
   ------------------- Entering Geometric Direct Minimization ------------------
   GDM::trust : actual energy change is       -1.519993020338006E-010
   GDM::trust : predicted energy change was   -2.795336307858203E-010
   GDM::trust : updated trust radius is        0.330000000000000     
   GDM:         diagonal hessian shift is      0.000000000000000E+000
   GDM::PreWSS: input subspace size is                  8
   GDM::PreWSS: working subspace size set to            8
   GDM::PrEWSS: # of linearly dependent vectors =            7
   GDM::PrEWSS: Max dev from orthonormality =   6.154798892765712E-015
   GDM::BFGS:   lowest Hinv e-value    0.154952161456542     
   GDM::BFGS:   highest Hinv e-value    1.97001658364657     
   GDM::      : max scaling in EWCs is          2.82842712474619     
   GDM::      : max rotation in step is        1.268164897084759E-005
   GDM::        grad.step =  -5.478790136646500E-011
   ------- Leaving GDM -- hopefully with a step in the right direction! --------
 
   11    -290.1626029822      3.31E-06  Gap = 0.01 eV  Normal BFGS step
 
   ------------------- Entering Geometric Direct Minimization ------------------
   GDM::trust : actual energy change is       -3.637978807091713E-011
   GDM::trust : predicted energy change was   -8.218185204969749E-011
   GDM::trust : updated trust radius is        0.330000000000000     
   GDM:         diagonal hessian shift is      0.000000000000000E+000
   GDM::PreWSS: input subspace size is                  9
   GDM::PreWSS: working subspace size set to            9
   GDM::PrEWSS: # of linearly dependent vectors =            8
   GDM::PrEWSS: Max dev from orthonormality =   3.913536161803677E-015
   GDM::BFGS:   lowest Hinv e-value    0.154387338445386     
   GDM::BFGS:   highest Hinv e-value    3.10017536901756     
   GDM::      : max scaling in EWCs is          2.82842712474619     
   GDM::      : max rotation in step is        2.159550538776027E-005
   GDM::        grad.step =  -9.178847213361764E-011
   ------- Leaving GDM -- hopefully with a step in the right direction! --------
 
   12    -290.1626029822      4.26E-06  Gap = 0.01 eV  Normal BFGS step
 
   ------------------- Entering Geometric Direct Minimization ------------------
   GDM::trust : actual energy change is        1.433591023669578E-010
   GDM::trust : predicted energy change was   -1.376827082004265E-010
   GDM::trust : updated trust radius is        0.108900000000000     
   GDM::WARNING energy changes are now smaller than effective accuracy.
   GDM::        calculation will continue, but THRESH should be increased
   GDM::        or SCF_CONVERGENCE decreased.
   GDM::        effective_thresh =   2.600000000000000E-010
   GDM:         diagonal hessian shift is      0.000000000000000E+000
   GDM::PreWSS: input subspace size is                 10
   GDM::PreWSS: working subspace size set to           10
   GDM::PrEWSS: # of linearly dependent vectors =            9
   GDM::PrEWSS: Max dev from orthonormality =   8.500145032286355E-015
   GDM::BFGS:   lowest Hinv e-value    0.154216150776400     
   GDM::BFGS:   highest Hinv e-value    2.29317901015931     
   GDM::      : max scaling in EWCs is          2.82842712474619     
   GDM::      : max rotation in step is       -1.400417824511811E-005
   GDM::        grad.step =  -1.756073245397485E-010
   ------- Leaving GDM -- hopefully with a step in the right direction! --------
 
   13    -290.1626029821      8.17E-06  Gap = 0.01 eV  Normal BFGS step
 
   ------------------- Entering Geometric Direct Minimization ------------------
   GDM::trust : actual energy change is       -1.710418473521713E-010
   GDM::trust : predicted energy change was   -2.634109868096227E-010
   GDM::trust : updated trust radius is        0.330000000000000     
   GDM:         diagonal hessian shift is      0.000000000000000E+000
   GDM::PreWSS: input subspace size is                 11
   GDM::PreWSS: working subspace size set to           11
   GDM::PrEWSS: # of linearly dependent vectors =           10
   GDM::PrEWSS: Max dev from orthonormality =   1.211877820317397E-014
   GDM::BFGS:   lowest Hinv e-value    0.154328861379401     
   GDM::BFGS:   highest Hinv e-value    2.35247906964090     
   GDM::      : max scaling in EWCs is          2.82842712474619     
   GDM::      : max rotation in step is       -1.500216629358730E-006
   GDM::        grad.step =  -1.346615054177242E-011
   ------- Leaving GDM -- hopefully with a step in the right direction! --------
 
   14    -290.1626029823      9.93E-07  Gap = 0.01 eV  Normal BFGS step
 
   ------------------- Entering Geometric Direct Minimization ------------------
   GDM::trust : actual energy change is        2.762590156635270E-011
   GDM::trust : predicted energy change was   -2.019922581265862E-011
   GDM::trust : updated trust radius is        0.108900000000000     
   GDM::WARNING energy changes are now smaller than effective accuracy.
   GDM::        calculation will continue, but THRESH should be increased
   GDM::        or SCF_CONVERGENCE decreased.
   GDM::        effective_thresh =   2.600000000000000E-010
   GDM:         diagonal hessian shift is      0.000000000000000E+000
   GDM::PreWSS: input subspace size is                 12
   GDM::PreWSS: working subspace size set to           12
   GDM::PrEWSS: # of linearly dependent vectors =           11
   GDM::PrEWSS: Max dev from orthonormality =   2.769312557049375E-014
   GDM::BFGS:   lowest Hinv e-value    0.154411946879060     
   GDM::BFGS:   highest Hinv e-value    2.27421838365700     
   GDM::      : max scaling in EWCs is          2.82842712474619     
   GDM::      : max rotation in step is        1.874425405317183E-006
   GDM::        grad.step =  -3.187859002218757E-011
   ------- Leaving GDM -- hopefully with a step in the right direction! --------
 
   15    -290.1626029822      3.07E-06  Gap = 0.01 eV  Normal BFGS step
 
   ------------------- Entering Geometric Direct Minimization ------------------
   GDM::trust : actual energy change is       -3.132072379230522E-011
   GDM::trust : predicted energy change was   -4.781788503328134E-011
   GDM::trust : updated trust radius is        0.330000000000000     
   GDM:         diagonal hessian shift is      0.000000000000000E+000
   GDM::PreWSS: input subspace size is                 13
   GDM::PreWSS: working subspace size set to           13
   GDM::PrEWSS: # of linearly dependent vectors =           12
   GDM::PrEWSS: Max dev from orthonormality =   1.094402346524248E-013
   GDM::BFGS:   lowest Hinv e-value    0.154416545487874     
   GDM::BFGS:   highest Hinv e-value    2.27568489360377     
   GDM::      : max scaling in EWCs is          2.82842712474619     
   GDM::      : max rotation in step is        2.448320664571319E-007
   GDM::        grad.step =  -3.673614668355525E-014
   ------- Leaving GDM -- hopefully with a step in the right direction! --------
 
   16    -290.1626029823      6.87E-08  Gap = 0.01 eV  Normal BFGS step
 
   ------------------- Entering Geometric Direct Minimization ------------------
   GDM::trust : actual energy change is       -1.136868377216160E-013
   GDM::trust : predicted energy change was   -5.510422002533288E-014
   GDM::trust : updated trust radius is        0.330000000000000     
   GDM:         diagonal hessian shift is      0.000000000000000E+000
   GDM::PreWSS: input subspace size is                 14
   GDM::PreWSS: working subspace size set to           14
   GDM::PrEWSS: # of linearly dependent vectors =           13
   GDM::PrEWSS: Max dev from orthonormality =   4.522007768237302E-013
   GDM::BFGS:   lowest Hinv e-value    0.154322521224566     
   GDM::BFGS:   highest Hinv e-value    2.30753315332458     
   GDM::      : max scaling in EWCs is          2.82842712474619     
   GDM::      : max rotation in step is       -7.183714106645218E-008
   GDM::        grad.step =  -6.899667539879159E-015
   ------- Leaving GDM -- hopefully with a step in the right direction! --------
 
   17    -290.1626029823      2.77E-08  Gap = 0.01 eV  Normal BFGS step
 
   ------------------- Entering Geometric Direct Minimization ------------------
   GDM::trust : actual energy change is        5.684341886080801E-013
   GDM::trust : predicted energy change was   -1.034950130981874E-014
   GDM::trust : updated trust radius is        0.108900000000000     
   GDM::WARNING energy changes are now smaller than effective accuracy.
   GDM::        calculation will continue, but THRESH should be increased
   GDM::        or SCF_CONVERGENCE decreased.
   GDM::        effective_thresh =   2.600000000000000E-010
   GDM:         diagonal hessian shift is      0.000000000000000E+000
   GDM::PreWSS: input subspace size is                 15
   GDM::PreWSS: working subspace size set to           15
   GDM::PrEWSS: # of linearly dependent vectors =           14
   GDM::PrEWSS: Max dev from orthonormality =   2.676470156615096E-013
   GDM::BFGS:   lowest Hinv e-value    0.154329751610302     
   GDM::BFGS:   highest Hinv e-value    2.35213016363183     
   GDM::      : max scaling in EWCs is          2.82842712474619     
   GDM::      : max rotation in step is       -3.458223920470874E-008
   GDM::        grad.step =  -5.307782735310053E-016
   ------- Leaving GDM -- hopefully with a step in the right direction! --------
 
   18    -290.1626029823      8.87E-09 Convergence criterion met
 ---------------------------------------
 One-Electron    Energy =  -917.6697650737
 Total Coulomb   Energy =   424.9228275120
 Alpha Exchange  Energy =    -3.2406956361
 Beta  Exchange  Energy =    -3.2406956361
 DFT   Exchange  Energy =   -26.1847394507
 DFT Correlation Energy =    -2.2051977518
 Nuclear Repu.   Energy =   237.4556630542
 Nuclear Attr.   Energy = -1138.3906304399
 Kinetic         Energy =   220.7208653661
 SCF time:  CPU 77.14 s  wall 11.07 s
 SCF   energy in the final basis set = -290.1626029823
 Total energy in the final basis set = -290.1626029823
 
 --------------------------------------------------------------
 
                    Orbital Energies (a.u.)
 --------------------------------------------------------------
 
 Alpha MOs
 -- Occupied --
-19.103 -19.102  -1.976  -1.960  -1.960  -1.218  -1.187  -1.184
 -1.184  -1.165  -1.165  -1.145  -1.133  -1.133  -0.842  -0.842
 -0.302  -0.298  -0.298  -0.297  -0.293  -0.293  -0.171  -0.144
 -0.144  -0.126
 -- Virtual --
 -0.067  -0.067  -0.042  -0.035  -0.035  -0.035  -0.035  -0.013
 -0.013  -0.007   0.002   0.025   0.030   0.030   0.036   0.040
  0.040   0.048   0.057   0.057   0.066   0.066   0.078   0.106
  0.132   0.132   0.143   0.205   0.214   0.214   0.229   0.229
  0.238   0.243   0.244   0.245   0.266   0.266   0.273   0.294
  0.299   0.299   0.299   0.301   0.301   0.310   0.330   0.330
  0.373   0.373   0.447   0.510   0.510   0.573   0.763   1.259
  1.259   1.264   1.264   1.273   1.383   1.635   1.846   1.852
  1.852   1.866   1.866   1.888   1.888   1.900   1.900   1.949
  1.973   8.622   8.623  12.458
 --------------------------------------------------------------
 
          Ground-State Mulliken Net Atomic Charges

     Atom                 Charge (a.u.)
  ----------------------------------------
      1 Zr                    0.573314
      2 Zr                    0.572986
      3 Zr                    0.573348
      4 O                    -0.859824
      5 O                    -0.859824
  ----------------------------------------
  Sum of atomic charges =     0.000000

 -----------------------------------------------------------------
                    Cartesian Multipole Moments
 -----------------------------------------------------------------
    Charge (ESU x 10^10)
                 0.0000
    Dipole Moment (Debye)
         X      -0.0016      Y      -0.0001      Z       0.0000
       Tot       0.0016
    Quadrupole Moments (Debye-Ang)
        XX     -70.4664     XY      -0.0002     YY     -70.4727
        XZ      -0.0004     YZ       0.1109     ZZ     -88.5762
    Octopole Moments (Debye-Ang^2)
       XXX       5.1931    XXY       0.0542    XYY      15.6312
       YYY      -0.1953    XXZ       0.0000    XYZ       0.0593
       YYZ      -0.0009    XZZ       6.5387    YZZ      -0.0448
       ZZZ      -0.0022
    Hexadecapole Moments (Debye-Ang^3)
      XXXX    -619.1091   XXXY      -0.0179   XXYY    -208.5567
      XYYY       0.0282   YYYY    -619.8743   XXXZ       0.0272
      XXYZ      -0.3764   XYYZ       0.0093   YYYZ      -1.1009
      XXZZ    -134.2448   XYZZ       0.0031   YYZZ    -133.7665
      XZZZ       0.0121   YZZZ       0.0293   ZZZZ    -385.9404
 -----------------------------------------------------------------
 Calculating analytic gradient of the SCF energy
 Gradient of SCF Energy
            1           2           3           4           5
    1   0.0000461  -0.0001703   0.0000453   0.0000371   0.0000418
    2  -0.0001382  -0.0000004   0.0001378  -0.0000231   0.0000240
    3  -0.0000349  -0.0000033   0.0000375  -0.0000093   0.0000099
 Max gradient component =       1.703E-04
 RMS gradient           =       7.225E-05
 Gradient time:  CPU 14.14 s  wall 2.53 s
 Geometry Optimization Parameters
   NAtoms,    NIC,     NZ,  NCons,   NDum,   NFix, NCnnct, MaxDiis
        5      85       0       0       0       0       0       0

 Cartesian Hessian Update
 Hessian Updated using BFGS Update


** GEOMETRY OPTIMIZATION IN DELOCALIZED INTERNAL COORDINATES **
   Searching for a Minimum

   Optimization Cycle:  11

                       Coordinates (Angstroms)
     ATOM                X               Y               Z
      1  Zr        0.6683845065   -1.2937244911   -0.0070670552
      2  Zr       -1.5660308866    0.0047603465    0.0001638600
      3  Zr        0.6757750193    1.2904449184    0.0069250231
      4  O        -0.0736606327    0.0102734579   -1.6171763078
      5  O        -0.0735580064   -0.0092242317    1.6171944799
   Point Group: c1    Number of degrees of freedom:     9


   Energy is   -290.162602982

 Hessian Updated using BFGS Update

  9 Hessian modes will be used to form the next step
  Hessian Eigenvalues:
     0.015799    0.045797    0.069488    0.075778    0.106973    0.115544
     0.120347    0.132367    0.149444

 Minimum Search - Taking Simple RFO Step
 Searching for Lamda that Minimizes Along All modes
 Value Taken    Lamda =   0.00000000
 Step Taken.  Stepsize is  0.002600

                             Maximum     Tolerance    Cnvgd?
         Gradient           0.000122      0.000300     YES
         Displacement       0.002256      0.001200      NO
         Energy change     -0.000001      0.000001     YES


                       Distance Matrix (Angstroms)
             Zr(  1)   Zr(  2)   Zr(  3)   O (  4)
   Zr(  2)  2.584323
   Zr(  3)  2.584218  2.584323
   O (  4)  2.200794  2.200679  2.199590
   O (  5)  2.199692  2.200559  2.200820  3.234430
 
 Final energy is   -290.162602982267     


 ******************************
 **  OPTIMIZATION CONVERGED  **
 ******************************

                       Coordinates (Angstroms)
     ATOM                X               Y               Z
      1  Zr        0.6683845065   -1.2937244911   -0.0070670552
      2  Zr       -1.5660308866    0.0047603465    0.0001638600
      3  Zr        0.6757750193    1.2904449184    0.0069250231
      4  O        -0.0736606327    0.0102734579   -1.6171763078
      5  O        -0.0735580064   -0.0092242317    1.6171944799

Z-matrix Print:
$molecule
0 1
Zr
O  1 2.199590
Zr 2 2.200679 1 71.932709
O  3 2.200559 2 94.595992 1 38.161142 0
Zr 4 2.199692 3 71.933083 2 38.162312 0
$end

 
 --------------------------------------------------------------
 
                    Orbital Energies (a.u.)
 --------------------------------------------------------------
 
 Alpha MOs
 -- Occupied --
-19.103 -19.102  -1.976  -1.960  -1.960  -1.218  -1.187  -1.184
 -1.184  -1.165  -1.165  -1.145  -1.133  -1.133  -0.842  -0.842
 -0.302  -0.298  -0.298  -0.297  -0.293  -0.293  -0.171  -0.144
 -0.144  -0.126
 -- Virtual --
 -0.067  -0.067  -0.042  -0.035  -0.035  -0.035  -0.035  -0.013
 -0.013  -0.007   0.002   0.025   0.030   0.030   0.036   0.040
  0.040   0.048   0.057   0.057   0.066   0.066   0.078   0.106
  0.132   0.132   0.143   0.205   0.214   0.214   0.229   0.229
  0.238   0.243   0.244   0.245   0.266   0.266   0.273   0.294
  0.299   0.299   0.299   0.301   0.301   0.310   0.330   0.330
  0.373   0.373   0.447   0.510   0.510   0.573   0.763   1.259
  1.259   1.264   1.264   1.273   1.383   1.635   1.846   1.852
  1.852   1.866   1.866   1.888   1.888   1.900   1.900   1.949
  1.973   8.622   8.623  12.458
 --------------------------------------------------------------
 
          Ground-State Mulliken Net Atomic Charges

     Atom                 Charge (a.u.)
  ----------------------------------------
      1 Zr                    0.573314
      2 Zr                    0.572986
      3 Zr                    0.573348
      4 O                    -0.859824
      5 O                    -0.859824
  ----------------------------------------
  Sum of atomic charges =     0.000000

 -----------------------------------------------------------------
                    Cartesian Multipole Moments
 -----------------------------------------------------------------
    Charge (ESU x 10^10)
                 0.0000
    Dipole Moment (Debye)
         X      -0.0016      Y      -0.0001      Z       0.0000
       Tot       0.0016
    Quadrupole Moments (Debye-Ang)
        XX     -70.4664     XY      -0.0002     YY     -70.4727
        XZ      -0.0004     YZ       0.1109     ZZ     -88.5762
    Octopole Moments (Debye-Ang^2)
       XXX       5.1931    XXY       0.0542    XYY      15.6312
       YYY      -0.1953    XXZ       0.0000    XYZ       0.0593
       YYZ      -0.0009    XZZ       6.5387    YZZ      -0.0448
       ZZZ      -0.0022
    Hexadecapole Moments (Debye-Ang^3)
      XXXX    -619.1091   XXXY      -0.0179   XXYY    -208.5567
      XYYY       0.0282   YYYY    -619.8743   XXXZ       0.0272
      XXYZ      -0.3764   XYYZ       0.0093   YYYZ      -1.1009
      XXZZ    -134.2448   XYZZ       0.0031   YYZZ    -133.7665
      XZZZ       0.0121   YZZZ       0.0293   ZZZZ    -385.9404
 -----------------------------------------------------------------
Archival summary:
1\1\hpc3452\OPT\ProcedureUnspecified\BasisUnspecified\r32(+,1)\liqiuy\FriJan1719:40:382020FriJan1719:40:382020\0\\#,OPT,ProcedureUnspecified,BasisUnspecified,\\84,1\Zr\O,1,2.19959\Zr,2,2.20068,1,71.9327\O,3,2.20056,2,94.596,1,38.1611,0\Zr,4,2.19969,3,71.9331,2,38.1623,0\\\@

 Total job time:  196.44s(wall), 1279.81s(cpu) 
 Fri Jan 17 19:40:38 2020

        *************************************************************
        *                                                           *
        *  Thank you very much for using Q-Chem.  Have a nice day.  *
        *                                                           *
        *************************************************************


0 sent ACK to 0 
now end server 0 ... 
cleanup process ... done
