
Running Job 1 of 2 ZrOx.in
qchem ZrOx.in_4734.0 /tmp/5732684.priya/ZrOx.save/ 1
/usr/usc/qchem/4.4/bin/mpi/mpirun_qchem -machinefile /usr/usc/qchem/4.4/bin/mpi/machines -np 1 /usr/usc/qchem/4.4/exe/qcprog.exe ZrOx.in_4734.0 /tmp/5732684.priya/ZrOx.save/

Process 0 of 1 is on hpc3455.hpcc.usc.edu - thread support 0
initial socket setup ...start
initial socket setup ...done 
now start server 0 ... 
Check license passed

                  Welcome to Q-Chem
     A Quantum Leap Into The Future Of Chemistry


 Q-Chem 4.4, Q-Chem, Inc., Pleasanton, CA (2016)

 Y. Shao,  Z. Gan,  E. Epifanovsky,  A. T. B. Gilbert,  M. Wormit,  
 J. Kussmann,  A. W. Lange,  A. Behn,  J. Deng,  X. Feng,  D. Ghosh,  
 M. Goldey,  P. R. Horn,  L. D. Jacobson,  I. Kaliman,  F.Rob,  
 R. Z. Khaliullin,  T. Kus,  A. Landau,  J. Liu,  E. I. Proynov,  Y. M. Rhee,  
 R. M. Richard,  M. A. Rohrdanz,  R. P. Steele,  E. J. Sundstrom,  
 H. L. Woodcock III,  P. M. Zimmerman,  D. Zuev,  B. Albrecht,  E. Alguire,  
 B. Austin,  S. A. Baeppler,  G. J. O. Beran,  Y. A. Bernard,  E. Berquist,  
 K. Brandhorst,  K. B. Bravaya,  S. T. Brown,  D. Casanova,  C.-M. Chang,  
 Y. Chen,  S. H. Chien,  K. D. Closser,  M. P. Coons,  D. L. Crittenden,  
 S. Dasgupta,  M. Diedenhofen,  R. A. DiStasio Jr.,  H. Do,  A. D. Dutoi,  
 R. G. Edgar,  P.-T. Fang,  S. Fatehi,  Q. Feng,  L. Fusti-Molnar,  
 A. Ghysels,  A. Golubeva-Zadorozhnaya,  J. Gomes,  A. Gunina,  
 M. W. D. Hanson-Heine,  P. H. P. Harbach,  A. W. Hauser,  E. G. Hohenstein,  
 Z. C. Holden,  K. Hui,  T.-C. Jagau,  H. Ji,  B. Kaduk,  K. Khistyaev,  
 Jaehoon Kim,  Jihan Kim,  R. A. King,  P. Klunzinger,  D. Kosenkov,  
 T. Kowalczyk,  C. M. Krauter,  A. Kunitsa,  K. U. Lao,  A. Laurent,  
 K. V. Lawler,  D. Lefrancois,  S. Lehtola,  S. V. Levchenko,  C. Y. Lin,  
 Y.-S. Lin,  F. Liu,  E. Livshits,  R. C. Lochan,  A. Luenser,  P. Manohar,  
 S. F. Manzer,  S.-P. Mao,  Y. Mao,  N. Mardirossian,  A. V. Marenich,  
 L. A. Martinez-Martinez,  S. A. Maurer,  N. J. Mayhall,  J.-M. Mewes,  
 A. F. Morrison,  K. Nanda,  C. M. Oana,  R. Olivares-Amaya,  D. P. O'Neill,  
 J. A. Parkhill,  T. M. Perrine,  R. Peverati,  P. A. Pieniazek,  F. Plasser,  
 A. Prociuk,  D. R. Rehn,  E. Rosta,  N. J. Russ,  N. Sergueev,  
 S. M. Sharada,  S. Sharma,  D. W. Small,  A. Sodt,  T. Stauch,  T. Stein,  
 D. Stuck,  Y.-C. Su,  A. J. W. Thom,  T. Tsuchimochi,  L. Vogt,  O. Vydrov,  
 T. Wang,  M. A. Watson,  J. Wenzel,  A. White,  C. F. Williams,  
 V. Vanovschi,  S. Yeganeh,  S. R. Yost,  Z.-Q. You,  I. Y. Zhang,  X. Zhang,  
 Y. Zhao,  B. R. Brooks,  G. K. L. Chan,  D. M. Chipman,  C. J. Cramer,  
 W. A. Goddard III,  M. S. Gordon,  W. J. Hehre,  A. Klamt,  
 H. F. Schaefer III,  M. W. Schmidt,  C. D. Sherrill,  D. G. Truhlar,  
 A. Warshel,  X. Xu,  A. Aspuru-Guzik,  R. Baer,  A. T. Bell,  N. A. Besley,  
 J.-D. Chai,  A. Dreuw,  B. D. Dunietz,  T. R. Furlani,  S. R. Gwaltney,  
 C.-P. Hsu,  Y. Jung,  J. Kong,  D. S. Lambrecht,  W. Liang,  C. Ochsenfeld,  
 V. A. Rassolov,  L. V. Slipchenko,  J. E. Subotnik,  T. Van Voorhis,  
 J. M. Herbert,  A. I. Krylov,  P. M. W. Gill,  M. Head-Gordon

 Contributors to earlier versions of Q-Chem not listed above: 
 R. D. Adamson,  J. Baker,  E. F. C. Byrd,  A. K. Chakraborty,  C.-L. Cheng,  
 H. Dachsel,  R. J. Doerksen,  G. Hawkins,  A. Heyden,  S. Hirata,  
 G. Kedziora,  F. J. Keil,  C. Kelley,  P. P. Korambath,  W. Kurlancheek,  
 A. M. Lee,  M. S. Lee,  D. Liotard,  I. Lotan,  P. E. Maslen,  N. Nair,  
 D. Neuhauser,  R. Olson,  B. Peters,  J. Ritchie,  N. E. Schultz,  
 N. Shenvi,  A. C. Simmonett,  K. S. Thanthiriwatte,  Q. Wu,  W. Zhang

 Please cite Q-Chem as follows:
 Y. Shao et al., Mol. Phys. 113, 184-215 (2015)
 DOI: 10.1080/00268976.2014.952696

 Q-Chem 4.4.1 for Intel X86 Linux

 Parts of Q-Chem use Armadillo 5.200.1 (Boston Tea Smuggler).
 http://arma.sourceforge.net/

 Q-Chem begins on Fri Jan 17 19:38:08 2020  

Host: 
0

     Scratch files written to /tmp/5732684.priya/ZrOx.save//
 Jul2716 11668_ 21447  21445 5558   
 Parallel job on  1  processors
Processing $rem in /usr/usc/qchem/4.4/config/preferences.
 MEM_TOTAL  2000 

Checking the input file for inconsistencies... 	...done.

--------------------------------------------------------------
User input:
--------------------------------------------------------------
$comment
--------------------------------------------------------
A SINGLE POINT DFT CALCULATION WITH BASIS SET PROJECTION
--------------------------------------------------------
$end

$molecule
0 3
Zr 1.66716 0.00000 -1.10009
Zr -1.66716 0.00000 -1.10009
Zr 0.00000 0.00000 0.52533
O -2.95675 0.00000 0.01918
O 2.95675 0.00000 0.01918
S 0.00000 0.00000 2.73228
$end

$rem
JOBTYPE   SP
METHOD   B3LYP
BASIS   GEN
ECP   GEN
MAX_SCF_CYCLES   200
SCF_CONVERGENCE 8
SCF_ALGORITHM  DIIS_GDM
SCF_PRINT 1
PDB_PRINT 2
THRESH 14
VARTHRESH 14
INCDFT FALSE
SYMMETRY False
Sym_ignore True
SCF_ALGORITHM GDM
XC_GRID 000128000302
DFT_D           EMPIRICAL_GRIMME3
DFT_D3_S6       1000
DFT_D3_RS6     1261
DFT_D3_S8      1703
DFT_D3_3BODY    FALSE
$end

$basis
O
6-31+G**
****
S
6-31+G**
****
Zr
LanL2DZ
****
$end

$ecp
Zr
LanL2DZ
****
$end

--------------------------------------------------------------
 ----------------------------------------------------------------
             Standard Nuclear Orientation (Angstroms)
    I     Atom           X                Y                Z
 ----------------------------------------------------------------
    1      Zr      1.6671600000     0.0000000000    -1.1000900000
    2      Zr     -1.6671600000     0.0000000000    -1.1000900000
    3      Zr      0.0000000000     0.0000000000     0.5253300000
    4      O      -2.9567500000     0.0000000000     0.0191800000
    5      O       2.9567500000     0.0000000000     0.0191800000
    6      S       0.0000000000     0.0000000000     2.7322800000
 ----------------------------------------------------------------
 Nuclear Repulsion Energy =   337.1756662670 hartrees
 There are       35 alpha and       33 beta electrons

 Q-Chem warning in module /home/scratch/svnadmin/11668_zgan/qchem/forms1/BasisType.C, line 1419:

 Setting pure/cartesian flag to 2111 for general basis


 Requested basis set is non-standard
 There are 40 shells and 124 basis functions

 Total QAlloc Memory Limit   2000 MB
 Mega-Array Size        61 MB
 MEM_STATIC part        62 MB

                       Distance Matrix (Angstroms)
             Zr(  1)   Zr(  2)   Zr(  3)   O (  4)   O (  5)
   Zr(  2)  3.334320
   Zr(  3)  2.328393  2.328393
   O (  4)  4.757448  1.707574  2.999760
   O (  5)  1.707574  4.757448  2.999760  5.913500
   S (  6)  4.179292  4.179292  2.206950  4.012890  4.012890
 
 A cutoff of  1.0D-14 yielded    795 shell pairs
 There are      7709 function pairs (      8882 Cartesian)
 
 -------------------------------------------------------
 OpenMP Integral Computing Module                       
 Release: version 1.0, May 2013, Q-Chem Inc. Pittsburgh 
 -------------------------------------------------------
 Integral Job Info:
 Integral job number is                      11
 Integral operator is                         1
 short-range coefficients                     0
 long-range coefficients              100000000
 Omega coefficients                           0
 if combine SR and LR in K                    0
 Integral screening is                        0
 Integral computing path is                   2
 max size of driver memory is            800000
 size of driver memory is                593474
 size of scratch memory is             15166112
 max col of scratch BK array               1296
 max len of scratch array in speh3          155
 max len of scratch index in speh4           18
 max int batch size is                      520
 min int batch size is                       52
 fixed nKL is                                52
 max L of basis functions is                  2
 order of int derivative is                   0
 number of shells is                         40
 number of basis is                         133
 number of cartesian basis is               133
 number of contracted shell pairs           795
 number of primitive shell pairs           3832
 maxK2 (contraction) of shell pair           36
 max number of K2 of shell pair               1
 max number of CS2 of shell pair             36
 max number of PS2 of shell pair            228
 mem total for path MDJ                   30772
 -------------------------------------------------------
 Requested basis set is non-standard
 Compound shells will be simplified
 There are 50 shells and 124 basis functions
 A cutoff of  1.0D-14 yielded   1229 shell pairs
 There are      7679 function pairs (      8852 Cartesian)
 Smallest overlap matrix eigenvalue = 5.97E-04

 Scale SEOQF with 1.000000e-01/1.000000e-01/1.000000e-01

 Standard Electronic Orientation quadrupole field applied
 Nucleus-field energy     =    -0.0000000089 hartrees
 Guess MOs from core Hamiltonian diagonalization
 An unrestricted hybrid HF-DFT SCF calculation will be
 performed using Geometric Direct Minimization
 Exchange:     0.2000 Hartree-Fock + 0.0800 Slater + 0.7200 B88
 Correlation:  0.1900 VWN1RPA + 0.8100 LYP
 Using Euler-Maclaurin-Lebedev (128,302) quadrature formula
 Dispersion:   Grimme D3
 SCF converges when RMS gradient is below 1.0E-08
 Maximum number of minimization steps = 200
 using 12 threads for integral computing 
 -------------------------------------------------------
 OpenMP BLAS3 based DFT computing Module                
 Release: version 1.0, May 2013, Q-Chem Inc. Pittsburgh 
 -------------------------------------------------------
 
   ------------------- Entering Geometric Direct Minimization ------------------
   GDM:         diagonal hessian shift is      0.000000000000000E+000
   GDM::PreWSS: input subspace size is                  1
   GDM::PreWSS: working subspace size set to            1
   GDM::PrEWSS: # of linearly dependent vectors =            0
   GDM::PrEWSS: Max dev from orthonormality =   4.440892098500626E-016
   GDM::BFGS:   lowest Hinv e-value     1.00000000000000     
   GDM::BFGS:   highest Hinv e-value    1.00000000000000     
   GDM::      : max scaling in EWCs is          1.41421356237309     
   GDM::      : max rotation in step is        8.800569363181399E-002
   GDM::        grad.step =   -3.66347968080287     
   ------- Leaving GDM -- hopefully with a step in the right direction! --------
 
 ---------------------------------------
  Cycle       Energy        RMS Gradient
 ---------------------------------------
    1    -655.9443119379      2.09E+00  Gap = -40.77 eV  Descent step
 
   ------------------- Entering Geometric Direct Minimization ------------------
   GDM::trust : actual energy change is        -3.59971483850995     
   GDM::trust : predicted energy change was   -0.163350000000000     
   GDM::trust : updated trust radius is        0.330000000000000     
   GDM::search:  On step            1 .  The current bracket is:
       left   : x =  0.0000E+00, e =      -655.9443119379, g = -0.9034E+01
       current: x =  0.4055E+00, e =      -659.5440267764, g = -0.8659E+01
       right  : x =  0.1000E+04, e =      1000.0000000000, g =  0.1000E+04
       next   : x =  0.4055E+01
   GDM::      : max rotation in step is        0.880056936318140     
   ------- Leaving GDM -- hopefully with a step in the right direction! --------
 
    2    -659.5440267764      1.27E+00  Gap = 0.00 eV  Line search: understep
 
   ------------------- Entering Geometric Direct Minimization ------------------
   GDM::trust : actual energy change is        -12.3431393947719     
   GDM::trust : predicted energy change was   -0.163350000000000     
   GDM::trust : updated trust radius is        0.330000000000000     
   GDM:         diagonal hessian shift is      0.000000000000000E+000
   GDM::PreWSS: input subspace size is                  2
   GDM::PreWSS: working subspace size set to            2
   GDM::PrEWSS: # of linearly dependent vectors =            0
   GDM::PrEWSS: Max dev from orthonormality =   9.124645483638005E-016
   GDM::BFGS:   lowest Hinv e-value    0.416484761266595     
   GDM::BFGS:   highest Hinv e-value    1.33227709702636     
   GDM::      : max scaling in EWCs is          2.82842712474619     
   GDM::      : max rotation in step is       -0.162635939110992     
   GDM::        grad.step =   -2.49410548888872     
   ------- Leaving GDM -- hopefully with a step in the right direction! --------
 
    3    -668.2874513327      1.42E+00  Gap = 0.00 eV  Descent step
 
   ------------------- Entering Geometric Direct Minimization ------------------
   GDM::trust : actual energy change is        -2.42195402821847     
   GDM::trust : predicted energy change was   -0.192709572970233     
   GDM::trust : updated trust radius is        0.330000000000000     
   GDM:         diagonal hessian shift is      0.000000000000000E+000
   GDM::PreWSS: input subspace size is                  3
   GDM::PreWSS: working subspace size set to            3
   GDM::PrEWSS: # of linearly dependent vectors =            0
   GDM::PrEWSS: Max dev from orthonormality =   2.040034807748725E-014
   GDM::BFGS:   lowest Hinv e-value    0.354115307189755     
   GDM::BFGS:   highest Hinv e-value    2.38156208319059     
   GDM::      : max scaling in EWCs is          2.82842712474619     
   GDM::      : max rotation in step is        0.183901395123891     
   GDM::        grad.step =   -2.17562327953262     
   ------- Leaving GDM -- hopefully with a step in the right direction! --------
 
    4    -670.7094053609      1.30E+00  Gap = 0.00 eV  Descent step
 
   ------------------- Entering Geometric Direct Minimization ------------------
   GDM::trust : actual energy change is        -2.08794603783997     
   GDM::trust : predicted energy change was   -0.157983324379959     
   GDM::trust : updated trust radius is        0.330000000000000     
   GDM:         diagonal hessian shift is      0.000000000000000E+000
   GDM::PreWSS: input subspace size is                  4
   GDM::PreWSS: working subspace size set to            4
   GDM::PrEWSS: # of linearly dependent vectors =            0
   GDM::PrEWSS: Max dev from orthonormality =   4.038783196769202E-013
   GDM::BFGS:   lowest Hinv e-value    0.342164659219490     
   GDM::BFGS:   highest Hinv e-value    1.96302594817737     
   GDM::      : max scaling in EWCs is          2.82842712474619     
   GDM::      : max rotation in step is       -0.133342442932945     
   GDM::        grad.step =   -1.95261670865679     
   ------- Leaving GDM -- hopefully with a step in the right direction! --------
 
    5    -672.7973513988      1.50E+00  Gap = 0.00 eV  Descent step
 
   ------------------- Entering Geometric Direct Minimization ------------------
   GDM::trust : actual energy change is        -1.88327243829929     
   GDM::trust : predicted energy change was   -0.163252338859629     
   GDM::trust : updated trust radius is        0.330000000000000     
   GDM:         diagonal hessian shift is      0.000000000000000E+000
   GDM::PreWSS: input subspace size is                  5
   GDM::PreWSS: working subspace size set to            5
   GDM::PrEWSS: # of linearly dependent vectors =            0
   GDM::PrEWSS: Max dev from orthonormality =   5.247399736951763E-013
   GDM::BFGS:   lowest Hinv e-value    0.273742573251973     
   GDM::BFGS:   highest Hinv e-value    2.31784801560160     
   GDM::      : max scaling in EWCs is          2.82842712474619     
   GDM::      : max rotation in step is        0.417267220844193     
   GDM::        grad.step =   -2.10870661432301     
   ------- Leaving GDM -- hopefully with a step in the right direction! --------
 
    6    -674.6806238371      2.86E+00  Gap = 0.00 eV  Descent step
 
   ------------------- Entering Geometric Direct Minimization ------------------
   GDM::trust : actual energy change is        -1.99330047805574     
   GDM::trust : predicted energy change was   -0.146806076074748     
   GDM::trust : updated trust radius is        0.330000000000000     
   GDM:         diagonal hessian shift is      0.000000000000000E+000
   GDM::PreWSS: input subspace size is                  6
   GDM::PreWSS: working subspace size set to            6
   GDM::PrEWSS: # of linearly dependent vectors =            0
   GDM::PrEWSS: Max dev from orthonormality =   1.157862000722432E-012
   GDM::BFGS:   lowest Hinv e-value    0.232721321080249     
   GDM::BFGS:   highest Hinv e-value    2.47802725102683     
   GDM::      : max scaling in EWCs is          2.82842712474619     
   GDM::      : max rotation in step is        0.289424628437608     
   GDM::        grad.step =   -1.95808443941839     
   ------- Leaving GDM -- hopefully with a step in the right direction! --------
 
    7    -676.6739243151      1.84E+00  Gap = -40.77 eV  Descent step
 
   ------------------- Entering Geometric Direct Minimization ------------------
   GDM::trust : actual energy change is        -1.82759629202917     
   GDM::trust : predicted energy change was   -0.164975310009297     
   GDM::trust : updated trust radius is        0.330000000000000     
   GDM:         diagonal hessian shift is      0.000000000000000E+000
   GDM::PreWSS: input subspace size is                  7
   GDM::PreWSS: working subspace size set to            7
   GDM::PrEWSS: # of linearly dependent vectors =            0
   GDM::PrEWSS: Max dev from orthonormality =   3.749101723515835E-012
   GDM::BFGS:   lowest Hinv e-value    0.230260674043445     
   GDM::BFGS:   highest Hinv e-value    2.54759432928031     
   GDM::      : max scaling in EWCs is          2.82842712474619     
   GDM::      : max rotation in step is       -0.210723742880184     
   GDM::        grad.step =   -1.50734915942103     
   ------- Leaving GDM -- hopefully with a step in the right direction! --------
 
    8    -678.5015206072      1.03E+00  Gap = -40.77 eV  Descent step
 
   ------------------- Entering Geometric Direct Minimization ------------------
   GDM::trust : actual energy change is        -1.38355086325203     
   GDM::trust : predicted energy change was   -0.180318646325833     
   GDM::trust : updated trust radius is        0.330000000000000     
   GDM:         diagonal hessian shift is      0.000000000000000E+000
   GDM::PreWSS: input subspace size is                  8
   GDM::PreWSS: working subspace size set to            8
   GDM::PrEWSS: # of linearly dependent vectors =            0
   GDM::PrEWSS: Max dev from orthonormality =   4.280530790934378E-012
   GDM::BFGS:   lowest Hinv e-value    0.249388734985053     
   GDM::BFGS:   highest Hinv e-value    2.93474525618382     
   GDM::      : max scaling in EWCs is          2.82842712474619     
   GDM::      : max rotation in step is        0.242624277225066     
   GDM::        grad.step =   -1.32508888181375     
   ------- Leaving GDM -- hopefully with a step in the right direction! --------
 
    9    -679.8850714704      1.04E+00  Gap = -40.77 eV  Descent step
 
   ------------------- Entering Geometric Direct Minimization ------------------
   GDM::trust : actual energy change is        -1.24496594728885     
   GDM::trust : predicted energy change was   -0.161584277756084     
   GDM::trust : updated trust radius is        0.330000000000000     
   GDM:         diagonal hessian shift is      0.000000000000000E+000
   GDM::PreWSS: input subspace size is                  9
   GDM::PreWSS: working subspace size set to            9
   GDM::PrEWSS: # of linearly dependent vectors =            0
   GDM::PrEWSS: Max dev from orthonormality =   1.437228808187641E-012
   GDM::BFGS:   lowest Hinv e-value    0.217744130956359     
   GDM::BFGS:   highest Hinv e-value    3.23920777566438     
   GDM::      : max scaling in EWCs is          2.82842712474619     
   GDM::      : max rotation in step is       -0.177299481416854     
   GDM::        grad.step =   -1.15021518206457     
   ------- Leaving GDM -- hopefully with a step in the right direction! --------
 
   10    -681.1300374177      6.62E-01  Gap = -40.77 eV  Descent step
 
   ------------------- Entering Geometric Direct Minimization ------------------
   GDM::trust : actual energy change is        -1.08945523781006     
   GDM::trust : predicted energy change was   -0.155415137387115     
   GDM::trust : updated trust radius is        0.330000000000000     
   GDM:         diagonal hessian shift is      0.000000000000000E+000
   GDM::PreWSS: input subspace size is                 10
   GDM::PreWSS: working subspace size set to           10
   GDM::PrEWSS: # of linearly dependent vectors =            0
   GDM::PrEWSS: Max dev from orthonormality =   3.295583424212101E-012
   GDM::BFGS:   lowest Hinv e-value    0.214796581017922     
   GDM::BFGS:   highest Hinv e-value    3.40706460762063     
   GDM::      : max scaling in EWCs is          2.82842712474619     
   GDM::      : max rotation in step is        0.196790985159406     
   GDM::        grad.step =   -1.04773391485307     
   ------- Leaving GDM -- hopefully with a step in the right direction! --------
 
   11    -682.2194926555      6.69E-01  Gap = -40.77 eV  Descent step
 
   ------------------- Entering Geometric Direct Minimization ------------------
   GDM::trust : actual energy change is       -0.991828629577071     
   GDM::trust : predicted energy change was   -0.149878295192592     
   GDM::trust : updated trust radius is        0.330000000000000     
   GDM:         diagonal hessian shift is      0.000000000000000E+000
   GDM::PreWSS: input subspace size is                 11
   GDM::PreWSS: working subspace size set to           11
   GDM::PrEWSS: # of linearly dependent vectors =            0
   GDM::PrEWSS: Max dev from orthonormality =   8.536654022561763E-012
   GDM::BFGS:   lowest Hinv e-value    0.201853598711175     
   GDM::BFGS:   highest Hinv e-value    3.58654188629251     
   GDM::      : max scaling in EWCs is          2.82842712474619     
   GDM::      : max rotation in step is        0.140060496081161     
   GDM::        grad.step =   -1.00621868967053     
   ------- Leaving GDM -- hopefully with a step in the right direction! --------
 
   12    -683.2113212851      5.59E-01  Gap = -40.77 eV  Descent step
 
   ------------------- Entering Geometric Direct Minimization ------------------
   GDM::trust : actual energy change is       -0.947200619477826     
   GDM::trust : predicted energy change was   -0.144579584515540     
   GDM::trust : updated trust radius is        0.330000000000000     
   GDM:         diagonal hessian shift is      0.000000000000000E+000
   GDM::PreWSS: input subspace size is                 12
   GDM::PreWSS: working subspace size set to           12
   GDM::PrEWSS: # of linearly dependent vectors =            0
   GDM::PrEWSS: Max dev from orthonormality =   5.942413228154919E-012
   GDM::BFGS:   lowest Hinv e-value    0.172485394288523     
   GDM::BFGS:   highest Hinv e-value    3.80507394159662     
   GDM::      : max scaling in EWCs is          2.82842712474619     
   GDM::      : max rotation in step is        0.176937082335020     
   GDM::        grad.step =  -0.961532555638037     
   ------- Leaving GDM -- hopefully with a step in the right direction! --------
 
   13    -684.1585219046      5.52E-01  Gap = -40.77 eV  Descent step
 
   ------------------- Entering Geometric Direct Minimization ------------------
   GDM::trust : actual energy change is       -0.893946645254232     
   GDM::trust : predicted energy change was   -0.145172233382142     
   GDM::trust : updated trust radius is        0.330000000000000     
   GDM:         diagonal hessian shift is      0.000000000000000E+000
   GDM::PreWSS: input subspace size is                 13
   GDM::PreWSS: working subspace size set to           13
   GDM::PrEWSS: # of linearly dependent vectors =            0
   GDM::PrEWSS: Max dev from orthonormality =   5.887866583176304E-012
   GDM::BFGS:   lowest Hinv e-value    0.154033802397791     
   GDM::BFGS:   highest Hinv e-value    3.95903269003194     
   GDM::      : max scaling in EWCs is          2.82842712474619     
   GDM::      : max rotation in step is       -0.166823032816953     
   GDM::        grad.step =  -0.863267369294165     
   ------- Leaving GDM -- hopefully with a step in the right direction! --------
 
   14    -685.0524685498      5.15E-01  Gap = -40.77 eV  Descent step
 
   ------------------- Entering Geometric Direct Minimization ------------------
   GDM::trust : actual energy change is       -0.782719704852752     
   GDM::trust : predicted energy change was   -0.154010234235834     
   GDM::trust : updated trust radius is        0.330000000000000     
   GDM:         diagonal hessian shift is      0.000000000000000E+000
   GDM::PreWSS: input subspace size is                 14
   GDM::PreWSS: working subspace size set to           14
   GDM::PrEWSS: # of linearly dependent vectors =            0
   GDM::PrEWSS: Max dev from orthonormality =   5.856953810834398E-012
   GDM::BFGS:   lowest Hinv e-value    0.141636015081900     
   GDM::BFGS:   highest Hinv e-value    4.12115010771804     
   GDM::      : max scaling in EWCs is          2.82842712474619     
   GDM::      : max rotation in step is       -0.179081365549378     
   GDM::        grad.step =  -0.713570581538969     
   ------- Leaving GDM -- hopefully with a step in the right direction! --------
 
   15    -685.8351882547      4.15E-01  Gap = -40.77 eV  Descent step
 
   ------------------- Entering Geometric Direct Minimization ------------------
   GDM::trust : actual energy change is       -0.622209077668003     
   GDM::trust : predicted energy change was   -0.158989906145077     
   GDM::trust : updated trust radius is        0.330000000000000     
   GDM:         diagonal hessian shift is      0.000000000000000E+000
   GDM::PreWSS: input subspace size is                 15
   GDM::PreWSS: working subspace size set to           15
   GDM::PrEWSS: # of linearly dependent vectors =            0
   GDM::PrEWSS: Max dev from orthonormality =   5.107908887524992E-012
   GDM::BFGS:   lowest Hinv e-value    0.125547279796948     
   GDM::BFGS:   highest Hinv e-value    4.23893192853626     
   GDM::      : max scaling in EWCs is          2.82842712474619     
   GDM::      : max rotation in step is       -0.108775626972393     
   GDM::        grad.step =  -0.485737811367149     
   ------- Leaving GDM -- hopefully with a step in the right direction! --------
 
   16    -686.4573973323      1.96E-01  Gap = -40.77 eV  Descent step
 
   ------------------- Entering Geometric Direct Minimization ------------------
   GDM::trust : actual energy change is       -0.433952685415420     
   GDM::trust : predicted energy change was   -0.150047593294641     
   GDM::trust : updated trust radius is        0.330000000000000     
   GDM:         diagonal hessian shift is      0.000000000000000E+000
   GDM::PreWSS: input subspace size is                 16
   GDM::PreWSS: working subspace size set to           16
   GDM::PrEWSS: # of linearly dependent vectors =            0
   GDM::PrEWSS: Max dev from orthonormality =   4.134751568907191E-012
   GDM::BFGS:   lowest Hinv e-value    0.135860076569298     
   GDM::BFGS:   highest Hinv e-value    4.24552920128841     
   GDM::      : max scaling in EWCs is          2.82842712474619     
   GDM::      : max rotation in step is        0.122394187141722     
   GDM::        grad.step =  -0.368505652301789     
   ------- Leaving GDM -- hopefully with a step in the right direction! --------
 
   17    -686.8913500177      1.46E-01  Gap = -40.77 eV  Descent step
 
   ------------------- Entering Geometric Direct Minimization ------------------
   GDM::trust : actual energy change is       -0.320136988905801     
   GDM::trust : predicted energy change was   -0.148652748014820     
   GDM::trust : updated trust radius is        0.330000000000000     
   GDM:         diagonal hessian shift is      0.000000000000000E+000
   GDM::PreWSS: input subspace size is                 17
   GDM::PreWSS: working subspace size set to           17
   GDM::PrEWSS: # of linearly dependent vectors =            0
   GDM::PrEWSS: Max dev from orthonormality =   3.717276486625565E-012
   GDM::BFGS:   lowest Hinv e-value    0.139056167144560     
   GDM::BFGS:   highest Hinv e-value    4.30116702594866     
   GDM::      : max scaling in EWCs is          2.82842712474619     
   GDM::      : max rotation in step is        0.177697689205762     
   GDM::        grad.step =  -0.261871122645330     
   ------- Leaving GDM -- hopefully with a step in the right direction! --------
 
   18    -687.2114870067      1.51E-01  Gap = -40.77 eV  Descent step
 
   ------------------- Entering Geometric Direct Minimization ------------------
   GDM::trust : actual energy change is       -0.212835254091942     
   GDM::trust : predicted energy change was   -0.148506670084734     
   GDM::trust : updated trust radius is        0.330000000000000     
   GDM:         diagonal hessian shift is      0.000000000000000E+000
   GDM::PreWSS: input subspace size is                 18
   GDM::PreWSS: working subspace size set to           18
   GDM::PrEWSS: # of linearly dependent vectors =            0
   GDM::PrEWSS: Max dev from orthonormality =   3.653223556998597E-012
   GDM::BFGS:   lowest Hinv e-value    0.141113724849689     
   GDM::BFGS:   highest Hinv e-value    4.33237049300947     
   GDM::      : max scaling in EWCs is          2.82842712474619     
   GDM::      : max rotation in step is        0.276792257335752     
   GDM::        grad.step =  -0.167096473673158     
   ------- Leaving GDM -- hopefully with a step in the right direction! --------
 
   19    -687.4243222607      1.50E-01  Gap = -40.77 eV  Descent step
 
   ------------------- Entering Geometric Direct Minimization ------------------
   GDM::trust : actual energy change is       -0.135910799865314     
   GDM::trust : predicted energy change was   -0.143434016171656     
   GDM::trust : updated trust radius is        0.330000000000000     
   GDM:         diagonal hessian shift is      0.000000000000000E+000
   GDM::PreWSS: input subspace size is                 19
   GDM::PreWSS: working subspace size set to           18
   GDM::PrEWSS: # of linearly dependent vectors =            0
   GDM::PrEWSS: Max dev from orthonormality =   3.256540870300029E-012
   GDM::BFGS:   lowest Hinv e-value    0.142421849254282     
   GDM::BFGS:   highest Hinv e-value    4.32671313600396     
   GDM::      : max scaling in EWCs is          2.82842712474619     
   GDM::      : max rotation in step is        0.324819732607791     
   GDM::        grad.step =  -0.137153959326483     
   ------- Leaving GDM -- hopefully with a step in the right direction! --------
 
   20    -687.5602330606      2.35E-01  Gap = -40.77 eV  Descent step
 
   ------------------- Entering Geometric Direct Minimization ------------------
   GDM::trust : actual energy change is       -0.146402286773764     
   GDM::trust : predicted energy change was   -0.142393394862489     
   GDM::trust : updated trust radius is        0.330000000000000     
   GDM:         diagonal hessian shift is      0.000000000000000E+000
   GDM::PreWSS: input subspace size is                 19
   GDM::PreWSS: working subspace size set to           18
   GDM::PrEWSS: # of linearly dependent vectors =            0
   GDM::PrEWSS: Max dev from orthonormality =   5.129860078390003E-012
   GDM::BFGS:   lowest Hinv e-value    2.500787292783475E-002
   GDM::BFGS:   highest Hinv e-value    633.530931731181     
   GDM::      : max scaling in EWCs is          2.82842712474619     
   GDM::      : max rotation in step is       -0.670376748681589     
   GDM::        grad.step =  -0.260600128072546     
   ------- Leaving GDM -- hopefully with a step in the right direction! --------
 
   21    -687.7066353474      5.86E-01  Gap = -40.77 eV  Descent step
 
   ------------------- Entering Geometric Direct Minimization ------------------
   GDM::trust : actual energy change is       -0.208460984562521     
   GDM::trust : predicted energy change was    -1.12862706687057     
   GDM::trust : updated trust radius is        0.330000000000000     
   GDM:         diagonal hessian shift is      0.000000000000000E+000
   GDM::PreWSS: input subspace size is                 19
   GDM::PreWSS: working subspace size set to           18
   GDM::PrEWSS: # of linearly dependent vectors =            0
   GDM::PrEWSS: Max dev from orthonormality =   3.578193297215648E-012
   GDM::BFGS:   lowest Hinv e-value    0.151904491700612     
   GDM::BFGS:   highest Hinv e-value    457.170838419795     
   GDM::      : max scaling in EWCs is          2.82842712474619     
   GDM::      : max rotation in step is       -0.269466019344032     
   GDM::        grad.step =  -0.227351953417991     
   ------- Leaving GDM -- hopefully with a step in the right direction! --------
 
   22    -687.9150963319      1.99E-01  Gap = -40.77 eV  Descent step
 
   ------------------- Entering Geometric Direct Minimization ------------------
   GDM::trust : actual energy change is       -4.147471012424830E-002
   GDM::trust : predicted energy change was   -0.226179245556556     
   GDM::trust : updated trust radius is        0.330000000000000     
   GDM:         diagonal hessian shift is      0.000000000000000E+000
   GDM::PreWSS: input subspace size is                 19
   GDM::PreWSS: working subspace size set to           18
   GDM::PrEWSS: # of linearly dependent vectors =            0
   GDM::PrEWSS: Max dev from orthonormality =   7.438827331895936E-012
   GDM::BFGS:   lowest Hinv e-value    0.166510146805604     
   GDM::BFGS:   highest Hinv e-value    463.420045609290     
   GDM::      : max scaling in EWCs is          2.82842712474619     
   GDM::      : max rotation in step is        0.222747528466864     
   GDM::        grad.step =  -0.261033872880729     
   ------- Leaving GDM -- hopefully with a step in the right direction! --------
 
   23    -687.9565710421      3.34E-01  Gap = -40.77 eV  Descent step
 
   ------------------- Entering Geometric Direct Minimization ------------------
   GDM::trust : actual energy change is       -5.561814232044071E-002
   GDM::trust : predicted energy change was   -0.315894505863693     
   GDM::trust : updated trust radius is        0.330000000000000     
   GDM:         diagonal hessian shift is      0.000000000000000E+000
   GDM::PreWSS: input subspace size is                 19
   GDM::PreWSS: working subspace size set to           18
   GDM::PrEWSS: # of linearly dependent vectors =            0
   GDM::PrEWSS: Max dev from orthonormality =   3.458644828868707E-012
   GDM::BFGS:   lowest Hinv e-value    0.155167831532814     
   GDM::BFGS:   highest Hinv e-value    457.549858177399     
   GDM::      : max scaling in EWCs is          2.82842712474619     
   GDM::      : max rotation in step is       -0.233839307832996     
   GDM::        grad.step =  -0.230597031186751     
   ------- Leaving GDM -- hopefully with a step in the right direction! --------
 
   24    -688.0121891844      1.75E-01  Gap = -40.77 eV  Descent step
 
   ------------------- Entering Geometric Direct Minimization ------------------
   GDM::trust : actual energy change is        1.995971131248098E-002
   GDM::trust : predicted energy change was   -0.358767116177286     
   GDM::trust : updated trust radius is        0.108900000000000     
   GDM::search:  On step            1 .  The current bracket is:
       left   : x =  0.0000E+00, e =      -688.0121891844, g = -0.4323E+00
       current: x =  0.5335E+00, e =      -687.9922294731, g =  0.5681E+00
       right  : x =  0.1000E+04, e =      1000.0000000000, g =  0.1000E+04
       next   : x =  0.2455E+00
   GDM::      : max rotation in step is       -0.107605665733020     
   ------- Leaving GDM -- hopefully with a step in the right direction! --------
 
   25    -687.9922294731      6.64E-02  Gap = -40.77 eV  Line search: overstep
 
   ------------------- Entering Geometric Direct Minimization ------------------
   GDM::trust : actual energy change is       -5.704723312385340E-002
   GDM::trust : predicted energy change was   -0.358767116177286     
   GDM::trust : updated trust radius is        0.108900000000000     
   GDM:         diagonal hessian shift is      0.000000000000000E+000
   GDM::PreWSS: input subspace size is                 19
   GDM::PreWSS: working subspace size set to           18
   GDM::PrEWSS: # of linearly dependent vectors =            0
   GDM::PrEWSS: Max dev from orthonormality =   2.014839683983638E-012
   GDM::BFGS:   lowest Hinv e-value    0.170137248914177     
   GDM::BFGS:   highest Hinv e-value    455.333251311549     
   GDM::      : max scaling in EWCs is          2.82842712474619     
   GDM::      : max rotation in step is        0.278885785302598     
   GDM::        grad.step =  -4.372665454005938E-002
   ------- Leaving GDM -- hopefully with a step in the right direction! --------
 
   26    -688.0692364175      3.64E-01  Gap = -40.77 eV  Descent step
 
   ------------------- Entering Geometric Direct Minimization ------------------
   GDM::trust : actual energy change is       -4.096738880957673E-002
   GDM::trust : predicted energy change was   -2.529482542949124E-002
   GDM::trust : updated trust radius is        0.330000000000000     
   GDM:         diagonal hessian shift is      0.000000000000000E+000
   GDM::PreWSS: input subspace size is                 19
   GDM::PreWSS: working subspace size set to           18
   GDM::PrEWSS: # of linearly dependent vectors =            0
   GDM::PrEWSS: Max dev from orthonormality =   3.918405530600744E-012
   GDM::BFGS:   lowest Hinv e-value    9.690821754195708E-002
   GDM::BFGS:   highest Hinv e-value    475.454814634764     
   GDM::      : max scaling in EWCs is          2.82842712474619     
   GDM::      : max rotation in step is        0.758336817357052     
   GDM::        grad.step =  -0.135553263618556     
   ------- Leaving GDM -- hopefully with a step in the right direction! --------
 
   27    -688.1102038063      3.34E-01  Gap = -40.77 eV  Descent step
 
   ------------------- Entering Geometric Direct Minimization ------------------
   GDM::trust : actual energy change is       -7.588008822995107E-002
   GDM::trust : predicted energy change was   -0.205393901221553     
   GDM::trust : updated trust radius is        0.330000000000000     
   GDM:         diagonal hessian shift is      0.000000000000000E+000
   GDM::PreWSS: input subspace size is                 19
   GDM::PreWSS: working subspace size set to           18
   GDM::PrEWSS: # of linearly dependent vectors =            0
   GDM::PrEWSS: Max dev from orthonormality =   2.116834485477170E-012
   GDM::BFGS:   lowest Hinv e-value    0.202836515268143     
   GDM::BFGS:   highest Hinv e-value    531.728625487856     
   GDM::      : max scaling in EWCs is          2.82842712474619     
   GDM::      : max rotation in step is        0.122790036162640     
   GDM::        grad.step =  -0.111350022444169     
   ------- Leaving GDM -- hopefully with a step in the right direction! --------
 
   28    -688.1860838946      9.03E-02  Gap = 0.00 eV  Descent step
 
   ------------------- Entering Geometric Direct Minimization ------------------
   GDM::trust : actual energy change is        0.127046122984552     
   GDM::trust : predicted energy change was   -0.215919968855772     
   GDM::trust : updated trust radius is        0.108900000000000     
   GDM::search:  On step            1 .  The current bracket is:
       left   : x =  0.0000E+00, e =      -688.1860838946, g = -0.2746E+00
       current: x =  0.4055E+00, e =      -688.0590377716, g =  0.8587E+00
       right  : x =  0.1000E+04, e =      1000.0000000000, g =  0.1000E+04
       next   : x =  0.9471E-01
   GDM::      : max rotation in step is        2.867637238438124E-002
   ------- Leaving GDM -- hopefully with a step in the right direction! --------
 
   29    -688.0590377716      7.01E-02  Gap = 0.00 eV  Line search: overstep
 
   ------------------- Entering Geometric Direct Minimization ------------------
   GDM::trust : actual energy change is       -1.236822284010941E-002
   GDM::trust : predicted energy change was   -0.215919968855772     
   GDM::trust : updated trust radius is        0.108900000000000     
   GDM:         diagonal hessian shift is      0.000000000000000E+000
   GDM::PreWSS: input subspace size is                 19
   GDM::PreWSS: working subspace size set to           18
   GDM::PrEWSS: # of linearly dependent vectors =            0
   GDM::PrEWSS: Max dev from orthonormality =   1.113893699500323E-012
   GDM::BFGS:   lowest Hinv e-value    0.192128056688602     
   GDM::BFGS:   highest Hinv e-value    521.874394573382     
   GDM::trust : dogleg step length is          0.108900000000000     
   GDM::      : max scaling in EWCs is          2.82842712474619     
   GDM::      : max rotation in step is        0.109650200876008     
   GDM::        grad.step =  -6.458396834504479E-003
   ------- Leaving GDM -- hopefully with a step in the right direction! --------
 
   30    -688.1984521174      2.52E-02  Gap = 0.00 eV  Dog-leg BFGS step
 
   ------------------- Entering Geometric Direct Minimization ------------------
   GDM::trust : actual energy change is        1.329718167198735E-003
   GDM::trust : predicted energy change was   -1.178520629851091E-002
   GDM::trust : updated trust radius is        3.593700000000000E-002
   GDM::search:  On step            1 .  The current bracket is:
       left   : x =  0.0000E+00, e =      -688.1984521174, g = -0.3847E-01
       current: x =  0.1679E+00, e =      -688.1971223992, g =  0.5513E-01
       right  : x =  0.1000E+04, e =      1000.0000000000, g =  0.1000E+04
       next   : x =  0.6960E-01
   GDM::      : max rotation in step is        4.546443587989633E-002
   ------- Leaving GDM -- hopefully with a step in the right direction! --------
 
   31    -688.1971223992      8.78E-03  Gap = 0.00 eV  Line search: overstep
 
   ------------------- Entering Geometric Direct Minimization ------------------
   GDM::trust : actual energy change is       -1.353360394091396E-003
   GDM::trust : predicted energy change was   -1.178520629851091E-002
   GDM::trust : updated trust radius is        3.593700000000000E-002
   GDM:         diagonal hessian shift is      0.000000000000000E+000
   GDM::PreWSS: input subspace size is                 19
   GDM::PreWSS: working subspace size set to           18
   GDM::PrEWSS: # of linearly dependent vectors =            0
   GDM::PrEWSS: Max dev from orthonormality =   4.381165569222745E-012
   GDM::BFGS:   lowest Hinv e-value    0.217740262397999     
   GDM::BFGS:   highest Hinv e-value    291.419542031276     
   GDM::      : max scaling in EWCs is          2.82842712474619     
   GDM::      : max rotation in step is        1.804793043902714E-002
   GDM::        grad.step =  -2.530767303957964E-003
   ------- Leaving GDM -- hopefully with a step in the right direction! --------
 
   32    -688.1998054778      1.74E-02  Gap = 0.00 eV  Descent step
 
   ------------------- Entering Geometric Direct Minimization ------------------
   GDM::trust : actual energy change is       -9.066688814982626E-004
   GDM::trust : predicted energy change was   -2.998528721060822E-003
   GDM::trust : updated trust radius is        0.330000000000000     
   GDM:         diagonal hessian shift is      0.000000000000000E+000
   GDM::PreWSS: input subspace size is                 19
   GDM::PreWSS: working subspace size set to           18
   GDM::PrEWSS: # of linearly dependent vectors =            0
   GDM::PrEWSS: Max dev from orthonormality =   5.542170888883646E-012
   GDM::BFGS:   lowest Hinv e-value    0.213327747853368     
   GDM::BFGS:   highest Hinv e-value    297.536637826769     
   GDM::trust : dogleg step length is          0.330000000000000     
   GDM::      : max scaling in EWCs is          2.82842712474619     
   GDM::      : max rotation in step is       -0.256891557010427     
   GDM::        grad.step =  -1.578610420708727E-002
   ------- Leaving GDM -- hopefully with a step in the right direction! --------
 
   33    -688.2007121467      2.52E-02  Gap = 0.00 eV  Dog-leg BFGS step
 
   ------------------- Entering Geometric Direct Minimization ------------------
   GDM::trust : actual energy change is        6.212230493508741E-002
   GDM::trust : predicted energy change was   -2.634745607097998E-002
   GDM::trust : updated trust radius is        0.108900000000000     
   GDM::search:  On step            1 .  The current bracket is:
       left   : x =  0.0000E+00, e =      -688.2007121467, g = -0.3081E-01
       current: x =  0.5124E+00, e =      -688.1385898417, g =  0.2853E+00
       right  : x =  0.1000E+04, e =      1000.0000000000, g =  0.1000E+04
       next   : x =  0.5192E-01
   GDM::      : max rotation in step is       -2.602618211268420E-002
   ------- Leaving GDM -- hopefully with a step in the right direction! --------
 
   34    -688.1385898417      2.03E-02  Gap = 0.00 eV  Line search: overstep
 
   ------------------- Entering Geometric Direct Minimization ------------------
   GDM::trust : actual energy change is       -8.676235383973108E-004
   GDM::trust : predicted energy change was   -2.634745607097998E-002
   GDM::trust : updated trust radius is        0.108900000000000     
   GDM:         diagonal hessian shift is      0.000000000000000E+000
   GDM::PreWSS: input subspace size is                 19
   GDM::PreWSS: working subspace size set to           18
   GDM::PrEWSS: # of linearly dependent vectors =            0
   GDM::PrEWSS: Max dev from orthonormality =   3.614278321073527E-011
   GDM::BFGS:   lowest Hinv e-value    0.261557894065692     
   GDM::BFGS:   highest Hinv e-value    25.4257482216511     
   GDM::trust : dogleg step length is          0.108900000000000     
   GDM::      : max scaling in EWCs is          2.82842712474619     
   GDM::      : max rotation in step is        6.844929851300136E-002
   GDM::        grad.step =  -2.915809009883128E-003
   ------- Leaving GDM -- hopefully with a step in the right direction! --------
 
   35    -688.2015797702      9.48E-03  Gap = 0.00 eV  Dog-leg BFGS step
 
   ------------------- Entering Geometric Direct Minimization ------------------
   GDM::trust : actual energy change is        9.829955062286899E-003
   GDM::trust : predicted energy change was   -3.829054012617126E-003
   GDM::trust : updated trust radius is        3.593700000000000E-002
   GDM::search:  On step            1 .  The current bracket is:
       left   : x =  0.0000E+00, e =      -688.2015797702, g = -0.1775E-01
       current: x =  0.1642E+00, e =      -688.1917498151, g =  0.1383E+00
       right  : x =  0.1000E+04, e =      1000.0000000000, g =  0.1000E+04
       next   : x =  0.1879E-01
   GDM::      : max rotation in step is        7.829467115281730E-003
   ------- Leaving GDM -- hopefully with a step in the right direction! --------
 
   36    -688.1917498151      1.03E-02  Gap = 0.00 eV  Line search: overstep
 
   ------------------- Entering Geometric Direct Minimization ------------------
   GDM::trust : actual energy change is       -1.686644479832466E-004
   GDM::trust : predicted energy change was   -3.829054012617126E-003
   GDM::trust : updated trust radius is        3.593700000000000E-002
   GDM:         diagonal hessian shift is      0.000000000000000E+000
   GDM::PreWSS: input subspace size is                 19
   GDM::PreWSS: working subspace size set to           18
   GDM::PrEWSS: # of linearly dependent vectors =            0
   GDM::PrEWSS: Max dev from orthonormality =   1.380742048473493E-011
   GDM::BFGS:   lowest Hinv e-value    0.206758958260510     
   GDM::BFGS:   highest Hinv e-value    5.63915535191588     
   GDM::trust : dogleg step length is          3.593700000000000E-002
   GDM::      : max scaling in EWCs is          2.82842712474619     
   GDM::      : max rotation in step is        2.416124593022367E-002
   GDM::        grad.step =  -9.786697798271462E-004
   ------- Leaving GDM -- hopefully with a step in the right direction! --------
 
   37    -688.2017484347      7.32E-03  Gap = 0.00 eV  Dog-leg BFGS step
 
   ------------------- Entering Geometric Direct Minimization ------------------
   GDM::trust : actual energy change is       -6.196180299866683E-005
   GDM::trust : predicted energy change was   -1.484368280042485E-003
   GDM::trust : updated trust radius is        3.593700000000000E-002
   GDM:         diagonal hessian shift is      0.000000000000000E+000
   GDM::PreWSS: input subspace size is                 19
   GDM::PreWSS: working subspace size set to           18
   GDM::PrEWSS: # of linearly dependent vectors =            0
   GDM::PrEWSS: Max dev from orthonormality =   4.390077385819924E-012
   GDM::BFGS:   lowest Hinv e-value    0.204373225849063     
   GDM::BFGS:   highest Hinv e-value    5.64118445243087     
   GDM::      : max scaling in EWCs is          2.82842712474619     
   GDM::      : max rotation in step is        1.899184904868755E-002
   GDM::        grad.step =  -1.019851105981040E-003
   ------- Leaving GDM -- hopefully with a step in the right direction! --------
 
   38    -688.2018103965      1.76E-02  Gap = 0.00 eV  Normal BFGS step
 
   ------------------- Entering Geometric Direct Minimization ------------------
   GDM::trust : actual energy change is       -3.298576360748484E-004
   GDM::trust : predicted energy change was   -1.529776658971560E-003
   GDM::trust : updated trust radius is        0.330000000000000     
   GDM:         diagonal hessian shift is      0.000000000000000E+000
   GDM::PreWSS: input subspace size is                 19
   GDM::PreWSS: working subspace size set to           18
   GDM::PrEWSS: # of linearly dependent vectors =            0
   GDM::PrEWSS: Max dev from orthonormality =   6.045976219670735E-012
   GDM::BFGS:   lowest Hinv e-value    0.216039377556752     
   GDM::BFGS:   highest Hinv e-value    5.07027536019450     
   GDM::      : max scaling in EWCs is          2.82842712474619     
   GDM::      : max rotation in step is       -3.741806831430491E-002
   GDM::        grad.step =  -6.152142798412428E-004
   ------- Leaving GDM -- hopefully with a step in the right direction! --------
 
   39    -688.2021402541      6.22E-03  Gap = 0.00 eV  Normal BFGS step
 
   ------------------- Entering Geometric Direct Minimization ------------------
   GDM::trust : actual energy change is        3.418421071046396E-004
   GDM::trust : predicted energy change was   -9.228214197618639E-004
   GDM::trust : updated trust radius is        0.108900000000000     
   GDM::search:  On step            1 .  The current bracket is:
       left   : x =  0.0000E+00, e =      -688.2021402541, g = -0.9657E-02
       current: x =  0.6370E-01, e =      -688.2017984120, g =  0.2046E-01
       right  : x =  0.1000E+04, e =      1000.0000000000, g =  0.1000E+04
       next   : x =  0.2048E-01
   GDM::      : max rotation in step is       -1.202652751970884E-002
   ------- Leaving GDM -- hopefully with a step in the right direction! --------
 
   40    -688.2017984120      1.66E-03  Gap = 82.44 eV  Line search: overstep
 
   ------------------- Entering Geometric Direct Minimization ------------------
   GDM::trust : actual energy change is       -9.916874705595546E-005
   GDM::trust : predicted energy change was   -9.228214197618639E-004
   GDM::trust : updated trust radius is        0.108900000000000     
   GDM:         diagonal hessian shift is      0.000000000000000E+000
   GDM::PreWSS: input subspace size is                 19
   GDM::PreWSS: working subspace size set to           18
   GDM::PrEWSS: # of linearly dependent vectors =            1
   GDM::PrEWSS: Max dev from orthonormality =   3.115258051522574E-012
   GDM::BFGS:   lowest Hinv e-value    0.221313246203677     
   GDM::BFGS:   highest Hinv e-value    3.77353566986570     
   GDM::      : max scaling in EWCs is          2.82842712474619     
   GDM::      : max rotation in step is       -1.132230913340337E-002
   GDM::        grad.step =  -9.521576345325266E-005
   ------- Leaving GDM -- hopefully with a step in the right direction! --------
 
   41    -688.2022394228      4.17E-03  Gap = -40.77 eV  Normal BFGS step
 
   ------------------- Entering Geometric Direct Minimization ------------------
   GDM::trust : actual energy change is       -1.908902675040736E-005
   GDM::trust : predicted energy change was   -1.428236451798790E-004
   GDM::trust : updated trust radius is        0.330000000000000     
   GDM:         diagonal hessian shift is      0.000000000000000E+000
   GDM::PreWSS: input subspace size is                 19
   GDM::PreWSS: working subspace size set to           18
   GDM::PrEWSS: # of linearly dependent vectors =            0
   GDM::PrEWSS: Max dev from orthonormality =   4.435175664230240E-011
   GDM::BFGS:   lowest Hinv e-value    0.222202630701619     
   GDM::BFGS:   highest Hinv e-value    3.03014605044513     
   GDM::      : max scaling in EWCs is          2.82842712474619     
   GDM::      : max rotation in step is       -9.628157752161885E-003
   GDM::        grad.step =  -6.323892834436765E-005
   ------- Leaving GDM -- hopefully with a step in the right direction! --------
 
   42    -688.2022585119      2.44E-03  Gap = -40.77 eV  Normal BFGS step
 
   ------------------- Entering Geometric Direct Minimization ------------------
   GDM::trust : actual energy change is        7.974745471983624E-006
   GDM::trust : predicted energy change was   -9.485839251655149E-005
   GDM::trust : updated trust radius is        0.108900000000000     
   GDM::search:  On step            1 .  The current bracket is:
       left   : x =  0.0000E+00, e =      -688.2022585119, g = -0.3939E-02
       current: x =  0.1606E-01, e =      -688.2022505371, g =  0.4912E-02
       right  : x =  0.1000E+04, e =      1000.0000000000, g =  0.1000E+04
       next   : x =  0.7129E-02
   GDM::      : max rotation in step is       -4.274982215827141E-003
   ------- Leaving GDM -- hopefully with a step in the right direction! --------
 
   43    -688.2022505371      5.78E-04  Gap = -40.77 eV  Line search: overstep
 
   ------------------- Entering Geometric Direct Minimization ------------------
   GDM::trust : actual energy change is       -1.400468113388342E-005
   GDM::trust : predicted energy change was   -9.485839251655149E-005
   GDM::trust : updated trust radius is        0.108900000000000     
   GDM:         diagonal hessian shift is      0.000000000000000E+000
   GDM::PreWSS: input subspace size is                 19
   GDM::PreWSS: working subspace size set to           18
   GDM::PrEWSS: # of linearly dependent vectors =            1
   GDM::PrEWSS: Max dev from orthonormality =   5.620864884647858E-012
   GDM::BFGS:   lowest Hinv e-value    0.210337250065545     
   GDM::BFGS:   highest Hinv e-value    3.00238481808924     
   GDM::      : max scaling in EWCs is          2.82842712474619     
   GDM::      : max rotation in step is        4.661632135627413E-003
   GDM::        grad.step =  -1.907037908451940E-005
   ------- Leaving GDM -- hopefully with a step in the right direction! --------
 
   44    -688.2022725166      1.55E-03  Gap = -40.77 eV  Normal BFGS step
 
   ------------------- Entering Geometric Direct Minimization ------------------
   GDM::trust : actual energy change is       -1.842927986217546E-006
   GDM::trust : predicted energy change was   -2.860556862677909E-005
   GDM::trust : updated trust radius is        0.330000000000000     
   GDM:         diagonal hessian shift is      0.000000000000000E+000
   GDM::PreWSS: input subspace size is                 19
   GDM::PreWSS: working subspace size set to           18
   GDM::PrEWSS: # of linearly dependent vectors =            0
   GDM::PrEWSS: Max dev from orthonormality =   4.447348739278212E-012
   GDM::BFGS:   lowest Hinv e-value    0.210953747954374     
   GDM::BFGS:   highest Hinv e-value    3.06169450061083     
   GDM::      : max scaling in EWCs is          2.82842712474619     
   GDM::      : max rotation in step is       -1.862986419349979E-003
   GDM::        grad.step =  -1.114546090481730E-005
   ------- Leaving GDM -- hopefully with a step in the right direction! --------
 
   45    -688.2022743595      1.18E-03  Gap = -40.77 eV  Normal BFGS step
 
   ------------------- Entering Geometric Direct Minimization ------------------
   GDM::trust : actual energy change is       -3.900171236637107E-006
   GDM::trust : predicted energy change was   -1.671819135722595E-005
   GDM::trust : updated trust radius is        0.330000000000000     
   GDM:         diagonal hessian shift is      0.000000000000000E+000
   GDM::PreWSS: input subspace size is                 19
   GDM::PreWSS: working subspace size set to           18
   GDM::PrEWSS: # of linearly dependent vectors =            0
   GDM::PrEWSS: Max dev from orthonormality =   8.442916504813880E-012
   GDM::BFGS:   lowest Hinv e-value    0.212896522678631     
   GDM::BFGS:   highest Hinv e-value    2.11476286583038     
   GDM::      : max scaling in EWCs is          2.82842712474619     
   GDM::      : max rotation in step is        1.098782895010353E-003
   GDM::        grad.step =  -2.877328390525104E-006
   ------- Leaving GDM -- hopefully with a step in the right direction! --------
 
   46    -688.2022782597      1.13E-03  Gap = -40.77 eV  Normal BFGS step
 
   ------------------- Entering Geometric Direct Minimization ------------------
   GDM::trust : actual energy change is       -9.489201602264075E-007
   GDM::trust : predicted energy change was   -4.315992585787656E-006
   GDM::trust : updated trust radius is        0.330000000000000     
   GDM:         diagonal hessian shift is      0.000000000000000E+000
   GDM::PreWSS: input subspace size is                 19
   GDM::PreWSS: working subspace size set to           18
   GDM::PrEWSS: # of linearly dependent vectors =            0
   GDM::PrEWSS: Max dev from orthonormality =   1.144729103175202E-011
   GDM::BFGS:   lowest Hinv e-value    0.200048469770384     
   GDM::BFGS:   highest Hinv e-value    1.91992975942232     
   GDM::      : max scaling in EWCs is          2.82842712474619     
   GDM::      : max rotation in step is        9.412191178914515E-004
   GDM::        grad.step =  -5.896099179887503E-007
   ------- Leaving GDM -- hopefully with a step in the right direction! --------
 
   47    -688.2022792086      3.45E-04  Gap = -40.77 eV  Normal BFGS step
 
   ------------------- Entering Geometric Direct Minimization ------------------
   GDM::trust : actual energy change is       -3.025379555765539E-007
   GDM::trust : predicted energy change was   -8.844148769831252E-007
   GDM::trust : updated trust radius is        0.330000000000000     
   GDM:         diagonal hessian shift is      0.000000000000000E+000
   GDM::PreWSS: input subspace size is                 19
   GDM::PreWSS: working subspace size set to           18
   GDM::PrEWSS: # of linearly dependent vectors =            0
   GDM::PrEWSS: Max dev from orthonormality =   2.383216193835302E-011
   GDM::BFGS:   lowest Hinv e-value    0.208206819779904     
   GDM::BFGS:   highest Hinv e-value    2.11509896322733     
   GDM::      : max scaling in EWCs is          2.82842712474619     
   GDM::      : max rotation in step is        5.173074082568423E-004
   GDM::        grad.step =  -8.350753432651324E-008
   ------- Leaving GDM -- hopefully with a step in the right direction! --------
 
   48    -688.2022795111      1.09E-04  Gap = -40.77 eV  Normal BFGS step
 
   ------------------- Entering Geometric Direct Minimization ------------------
   GDM::trust : actual energy change is       -4.880871529167052E-008
   GDM::trust : predicted energy change was   -1.252613014897698E-007
   GDM::trust : updated trust radius is        0.330000000000000     
   GDM:         diagonal hessian shift is      0.000000000000000E+000
   GDM::PreWSS: input subspace size is                 19
   GDM::PreWSS: working subspace size set to           18
   GDM::PrEWSS: # of linearly dependent vectors =            0
   GDM::PrEWSS: Max dev from orthonormality =   2.188957348714382E-011
   GDM::BFGS:   lowest Hinv e-value    0.189112987212083     
   GDM::BFGS:   highest Hinv e-value    2.95641097720887     
   GDM::      : max scaling in EWCs is          2.82842712474619     
   GDM::      : max rotation in step is        4.906073136370263E-004
   GDM::        grad.step =  -3.416846177419044E-008
   ------- Leaving GDM -- hopefully with a step in the right direction! --------
 
   49    -688.2022795599      6.82E-05  Gap = -40.77 eV  Normal BFGS step
 
   ------------------- Entering Geometric Direct Minimization ------------------
   GDM::trust : actual energy change is       -1.875821453722892E-008
   GDM::trust : predicted energy change was   -5.125269266128566E-008
   GDM::trust : updated trust radius is        0.330000000000000     
   GDM:         diagonal hessian shift is      0.000000000000000E+000
   GDM::PreWSS: input subspace size is                 19
   GDM::PreWSS: working subspace size set to           18
   GDM::PrEWSS: # of linearly dependent vectors =            0
   GDM::PrEWSS: Max dev from orthonormality =   3.137538839848020E-011
   GDM::BFGS:   lowest Hinv e-value    0.196945122755776     
   GDM::BFGS:   highest Hinv e-value    3.26639152541207     
   GDM::      : max scaling in EWCs is          2.82842712474619     
   GDM::      : max rotation in step is       -1.208631748165605E-004
   GDM::        grad.step =  -3.361619160433799E-009
   ------- Leaving GDM -- hopefully with a step in the right direction! --------
 
   50    -688.2022795787      2.04E-05  Gap = -40.77 eV  Normal BFGS step
 
   ------------------- Entering Geometric Direct Minimization ------------------
   GDM::trust : actual energy change is       -1.864123078121338E-009
   GDM::trust : predicted energy change was   -5.042428740650695E-009
   GDM::trust : updated trust radius is        0.330000000000000     
   GDM:         diagonal hessian shift is      0.000000000000000E+000
   GDM::PreWSS: input subspace size is                 19
   GDM::PreWSS: working subspace size set to           18
   GDM::PrEWSS: # of linearly dependent vectors =            0
   GDM::PrEWSS: Max dev from orthonormality =   1.914930020108230E-011
   GDM::BFGS:   lowest Hinv e-value    0.191043809385092     
   GDM::BFGS:   highest Hinv e-value    3.36149607879221     
   GDM::      : max scaling in EWCs is          2.82842712474619     
   GDM::      : max rotation in step is       -4.805286161637928E-005
   GDM::        grad.step =  -9.382723230131620E-010
   ------- Leaving GDM -- hopefully with a step in the right direction! --------
 
   51    -688.2022795805      6.43E-06  Gap = -40.77 eV  Normal BFGS step
 
   ------------------- Entering Geometric Direct Minimization ------------------
   GDM::trust : actual energy change is       -1.000444171950221E-010
   GDM::trust : predicted energy change was   -1.407408484519744E-009
   GDM::trust : updated trust radius is        0.330000000000000     
   GDM:         diagonal hessian shift is      0.000000000000000E+000
   GDM::PreWSS: input subspace size is                 19
   GDM::PreWSS: working subspace size set to           18
   GDM::PrEWSS: # of linearly dependent vectors =            0
   GDM::PrEWSS: Max dev from orthonormality =   2.931111117709939E-010
   GDM::BFGS:   lowest Hinv e-value    0.190316173532825     
   GDM::BFGS:   highest Hinv e-value    3.72847308533068     
   GDM::      : max scaling in EWCs is          2.82842712474619     
   GDM::      : max rotation in step is       -2.330331704052387E-005
   GDM::        grad.step =  -1.174381433973652E-009
   ------- Leaving GDM -- hopefully with a step in the right direction! --------
 
   52    -688.2022795806      1.19E-05  Gap = -40.77 eV  Normal BFGS step
 
   ------------------- Entering Geometric Direct Minimization ------------------
   GDM::trust : actual energy change is       -2.232809492852539E-010
   GDM::trust : predicted energy change was   -1.761572150960478E-009
   GDM::trust : updated trust radius is        0.330000000000000     
   GDM:         diagonal hessian shift is      0.000000000000000E+000
   GDM::PreWSS: input subspace size is                 19
   GDM::PreWSS: working subspace size set to           18
   GDM::PrEWSS: # of linearly dependent vectors =            0
   GDM::PrEWSS: Max dev from orthonormality =   9.190913308199100E-011
   GDM::BFGS:   lowest Hinv e-value    0.192039799997553     
   GDM::BFGS:   highest Hinv e-value    3.30945145565098     
   GDM::      : max scaling in EWCs is          2.82842712474619     
   GDM::      : max rotation in step is        2.873862034763641E-005
   GDM::        grad.step =  -4.724707725656119E-010
   ------- Leaving GDM -- hopefully with a step in the right direction! --------
 
   53    -688.2022795809      5.96E-06  Gap = -40.77 eV  Normal BFGS step
 
   ------------------- Entering Geometric Direct Minimization ------------------
   GDM::trust : actual energy change is       -2.016804501181468E-010
   GDM::trust : predicted energy change was   -7.087061588484180E-010
   GDM::trust : updated trust radius is        0.330000000000000     
   GDM:         diagonal hessian shift is      0.000000000000000E+000
   GDM::PreWSS: input subspace size is                 19
   GDM::PreWSS: working subspace size set to           18
   GDM::PrEWSS: # of linearly dependent vectors =            1
   GDM::PrEWSS: Max dev from orthonormality =   9.635076764213935E-011
   GDM::BFGS:   lowest Hinv e-value    0.192681286248733     
   GDM::BFGS:   highest Hinv e-value    3.25148878868265     
   GDM::      : max scaling in EWCs is          2.82842712474619     
   GDM::      : max rotation in step is       -3.845978802941500E-006
   GDM::        grad.step =  -4.858462355443385E-011
   ------- Leaving GDM -- hopefully with a step in the right direction! --------
 
   54    -688.2022795811      1.26E-06  Gap = -40.77 eV  Normal BFGS step
 
   ------------------- Entering Geometric Direct Minimization ------------------
   GDM::trust : actual energy change is        1.705302565824240E-012
   GDM::trust : predicted energy change was   -7.287693533165080E-011
   GDM::trust : updated trust radius is        0.108900000000000     
   GDM::WARNING energy changes are now smaller than effective accuracy.
   GDM::        calculation will continue, but THRESH should be increased
   GDM::        or SCF_CONVERGENCE decreased.
   GDM::        effective_thresh =   3.500000000000000E-010
   GDM:         diagonal hessian shift is      0.000000000000000E+000
   GDM::PreWSS: input subspace size is                 19
   GDM::PreWSS: working subspace size set to           18
   GDM::PrEWSS: # of linearly dependent vectors =            0
   GDM::PrEWSS: Max dev from orthonormality =   1.229532723898141E-009
   GDM::BFGS:   lowest Hinv e-value    0.196341870072589     
   GDM::BFGS:   highest Hinv e-value    3.38481691535448     
   GDM::      : max scaling in EWCs is          2.82842712474619     
   GDM::      : max rotation in step is       -3.757301120070606E-006
   GDM::        grad.step =  -5.157182979445797E-011
   ------- Leaving GDM -- hopefully with a step in the right direction! --------
 
   55    -688.2022795811      3.91E-06  Gap = -40.77 eV  Normal BFGS step
 
   ------------------- Entering Geometric Direct Minimization ------------------
   GDM::trust : actual energy change is       -1.250555214937776E-011
   GDM::trust : predicted energy change was   -7.735774469168694E-011
   GDM::trust : updated trust radius is        0.330000000000000     
   GDM:         diagonal hessian shift is      0.000000000000000E+000
   GDM::PreWSS: input subspace size is                 19
   GDM::PreWSS: working subspace size set to           18
   GDM::PrEWSS: # of linearly dependent vectors =            1
   GDM::PrEWSS: Max dev from orthonormality =   3.662192563091970E-010
   GDM::BFGS:   lowest Hinv e-value    0.199197211233193     
   GDM::BFGS:   highest Hinv e-value    3.31091304900807     
   GDM::      : max scaling in EWCs is          2.82842712474619     
   GDM::      : max rotation in step is        2.031261336197785E-006
   GDM::        grad.step =  -2.139280185240680E-011
   ------- Leaving GDM -- hopefully with a step in the right direction! --------
 
   56    -688.2022795811      2.54E-06  Gap = -40.77 eV  Normal BFGS step
 
   ------------------- Entering Geometric Direct Minimization ------------------
   GDM::trust : actual energy change is       -7.844391802791506E-012
   GDM::trust : predicted energy change was   -3.208920277861020E-011
   GDM::trust : updated trust radius is        0.330000000000000     
   GDM:         diagonal hessian shift is      0.000000000000000E+000
   GDM::PreWSS: input subspace size is                 19
   GDM::PreWSS: working subspace size set to           18
   GDM::PrEWSS: # of linearly dependent vectors =            1
   GDM::PrEWSS: Max dev from orthonormality =   1.874424677972275E-010
   GDM::BFGS:   lowest Hinv e-value    0.193594353383002     
   GDM::BFGS:   highest Hinv e-value    3.31275284399875     
   GDM::      : max scaling in EWCs is          2.82842712474619     
   GDM::      : max rotation in step is       -8.673958190209644E-007
   GDM::        grad.step =  -2.212406817987124E-012
   ------- Leaving GDM -- hopefully with a step in the right direction! --------
 
   57    -688.2022795811      3.65E-07  Gap = -40.77 eV  Normal BFGS step
 
   ------------------- Entering Geometric Direct Minimization ------------------
   GDM::trust : actual energy change is       -1.023181539494544E-012
   GDM::trust : predicted energy change was   -3.318610226980684E-012
   GDM::trust : updated trust radius is        0.330000000000000     
   GDM:         diagonal hessian shift is      0.000000000000000E+000
   GDM::PreWSS: input subspace size is                 19
   GDM::PreWSS: working subspace size set to           18
   GDM::PrEWSS: # of linearly dependent vectors =            1
   GDM::PrEWSS: Max dev from orthonormality =   3.523080507883414E-010
   GDM::BFGS:   lowest Hinv e-value    0.200635655505245     
   GDM::BFGS:   highest Hinv e-value    3.33733739865040     
   GDM::      : max scaling in EWCs is          2.82842712474619     
   GDM::      : max rotation in step is       -9.843226257336244E-007
   GDM::        grad.step =  -5.227180432435313E-013
   ------- Leaving GDM -- hopefully with a step in the right direction! --------
 
   58    -688.2022795811      2.26E-07  Gap = -40.77 eV  Normal BFGS step
 
   ------------------- Entering Geometric Direct Minimization ------------------
   GDM::trust : actual energy change is        2.273736754432321E-013
   GDM::trust : predicted energy change was   -7.840770648652970E-013
   GDM::trust : updated trust radius is        0.108900000000000     
   GDM::WARNING energy changes are now smaller than effective accuracy.
   GDM::        calculation will continue, but THRESH should be increased
   GDM::        or SCF_CONVERGENCE decreased.
   GDM::        effective_thresh =   1.229532723898141E-009
   GDM:         diagonal hessian shift is      0.000000000000000E+000
   GDM::PreWSS: input subspace size is                 19
   GDM::PreWSS: working subspace size set to           18
   GDM::PrEWSS: # of linearly dependent vectors =            0
   GDM::PrEWSS: Max dev from orthonormality =   8.808392227416251E-010
   GDM::BFGS:   lowest Hinv e-value    0.202444224099449     
   GDM::BFGS:   highest Hinv e-value    3.85526096942277     
   GDM::      : max scaling in EWCs is          2.82842712474619     
   GDM::      : max rotation in step is       -1.908541720458242E-006
   GDM::        grad.step =  -5.240986008724928E-013
   ------- Leaving GDM -- hopefully with a step in the right direction! --------
 
   59    -688.2022795811      3.61E-07  Gap = -40.77 eV  Normal BFGS step
 
   ------------------- Entering Geometric Direct Minimization ------------------
   GDM::trust : actual energy change is       -2.273736754432321E-013
   GDM::trust : predicted energy change was   -7.861479013087387E-013
   GDM::trust : updated trust radius is        0.330000000000000     
   GDM:         diagonal hessian shift is      0.000000000000000E+000
   GDM::PreWSS: input subspace size is                 19
   GDM::PreWSS: working subspace size set to           18
   GDM::PrEWSS: # of linearly dependent vectors =            1
   GDM::PrEWSS: Max dev from orthonormality =   1.173473922200241E-010
   GDM::BFGS:   lowest Hinv e-value    0.178466232634368     
   GDM::BFGS:   highest Hinv e-value    16.5985342776795     
   GDM::      : max scaling in EWCs is          2.82842712474619     
   GDM::      : max rotation in step is       -1.410502185396482E-005
   GDM::        grad.step =  -2.940530816974095E-012
   ------- Leaving GDM -- hopefully with a step in the right direction! --------
 
   60    -688.2022795811      6.16E-07  Gap = -40.77 eV  Normal BFGS step
 
   ------------------- Entering Geometric Direct Minimization ------------------
   GDM::trust : actual energy change is       -4.433786671143025E-012
   GDM::trust : predicted energy change was   -4.410796225461148E-012
   GDM::trust : updated trust radius is        0.330000000000000     
   GDM::search:  On step            1 .  The current bracket is:
       left   : x =  0.0000E+00, e =      -688.2022795811, g = -0.1833E-06
       current: x =  0.1604E-04, e =      -688.2022795811, g = -0.2597E-06
       right  : x =  0.1000E+04, e =      1000.0000000000, g =  0.1000E+04
       next   : x =  0.1604E-03
   GDM::      : max rotation in step is       -1.410502185396482E-004
   ------- Leaving GDM -- hopefully with a step in the right direction! --------
 
   61    -688.2022795811      1.17E-07  Gap = -40.77 eV  Line search: understep
 
   ------------------- Entering Geometric Direct Minimization ------------------
   GDM::trust : actual energy change is       -9.015366231324151E-011
   GDM::trust : predicted energy change was   -4.410796225461148E-012
   GDM::trust : updated trust radius is        0.330000000000000     
   GDM::search:  On step            2 .  The current bracket is:
       left   : x =  0.1604E-04, e =      -688.2022795811, g = -0.2597E-06
       current: x =  0.1604E-03, e =      -688.2022795812, g = -0.9467E-06
       right  : x =  0.1000E+04, e =         0.0000000000, g =  0.0000E+00
       next   : x =  0.1460E-02
   GDM::      : max rotation in step is       -1.283556988710798E-003
   ------- Leaving GDM -- hopefully with a step in the right direction! --------
 
   62    -688.2022795812      1.07E-06  Gap = -40.77 eV  Line search: understep
 
   ------------------- Entering Geometric Direct Minimization ------------------
   GDM::trust : actual energy change is       -5.338733899407089E-009
   GDM::trust : predicted energy change was   -4.410796225461148E-012
   GDM::trust : updated trust radius is        0.330000000000000     
   GDM::search:  On step            3 .  The current bracket is:
       left   : x =  0.1604E-03, e =      -688.2022795812, g = -0.9467E-06
       current: x =  0.1460E-02, e =      -688.2022795864, g = -0.7131E-05
       right  : x =  0.1000E+04, e =         0.0000000000, g =  0.0000E+00
       next   : x =  0.1315E-01
   GDM::      : max rotation in step is       -1.156611792025115E-002
   ------- Leaving GDM -- hopefully with a step in the right direction! --------
 
   63    -688.2022795864      9.73E-06  Gap = -40.77 eV  Line search: understep
 
   ------------------- Entering Geometric Direct Minimization ------------------
   GDM::trust : actual energy change is       -4.141164708926226E-007
   GDM::trust : predicted energy change was   -4.410796225461148E-012
   GDM::trust : updated trust radius is        0.330000000000000     
   GDM::search:  On step            4 .  The current bracket is:
       left   : x =  0.1460E-02, e =      -688.2022795864, g = -0.7131E-05
       current: x =  0.1315E-01, e =      -688.2022799952, g = -0.6277E-04
       right  : x =  0.1000E+04, e =         0.0000000000, g =  0.0000E+00
       next   : x =  0.1184E+00
   GDM::      : max rotation in step is       -0.104109166304114     
   ------- Leaving GDM -- hopefully with a step in the right direction! --------
 
   64    -688.2022799952      8.83E-05  Gap = -40.77 eV  Line search: understep
 
   ------------------- Entering Geometric Direct Minimization ------------------
   GDM::trust : actual energy change is       -3.162288885505404E-005
   GDM::trust : predicted energy change was   -4.410796225461148E-012
   GDM::trust : updated trust radius is        0.330000000000000     
   GDM:         diagonal hessian shift is      0.000000000000000E+000
   GDM::PreWSS: input subspace size is                 19
   GDM::PreWSS: working subspace size set to           18
   GDM::PrEWSS: # of linearly dependent vectors =            0
   GDM::PrEWSS: Max dev from orthonormality =   4.891711341548088E-011
   GDM::BFGS:   lowest Hinv e-value   -0.336921929337141     
   GDM::BFGS:   highest Hinv e-value    56.1184315516034     
   GDM::BFGS:   rebuilding Hinv to be positive definite
   GDM::      : max scaling in EWCs is          2.82842712474619     
   GDM::      : max rotation in step is        8.420992692967960E-002
   GDM::        grad.step =  -1.814228335761180E-004
   ------- Leaving GDM -- hopefully with a step in the right direction! --------
 
   65    -688.2023112040      9.76E-03  Gap = -40.77 eV  Normal BFGS step
 
   ------------------- Entering Geometric Direct Minimization ------------------
   GDM::trust : actual energy change is        1.365443703207347E-004
   GDM::trust : predicted energy change was   -2.721342503641765E-004
   GDM::trust : updated trust radius is        0.108900000000000     
   GDM::search:  On step            1 .  The current bracket is:
       left   : x =  0.0000E+00, e =      -688.2023112040, g = -0.1708E-02
       current: x =  0.1062E+00, e =      -688.2021746596, g =  0.4208E-02
       right  : x =  0.1000E+04, e =      1000.0000000000, g =  0.1000E+04
       next   : x =  0.3030E-01
   GDM::      : max rotation in step is        2.402386688247306E-002
   ------- Leaving GDM -- hopefully with a step in the right direction! --------
 
   66    -688.2021746596      1.19E-03  Gap = -40.77 eV  Line search: overstep
 
   ------------------- Entering Geometric Direct Minimization ------------------
   GDM::trust : actual energy change is       -2.537254113121890E-005
   GDM::trust : predicted energy change was   -2.721342503641765E-004
   GDM::trust : updated trust radius is        0.108900000000000     
   GDM:         diagonal hessian shift is      0.000000000000000E+000
   GDM::PreWSS: input subspace size is                 19
   GDM::PreWSS: working subspace size set to           18
   GDM::PrEWSS: # of linearly dependent vectors =            0
   GDM::PrEWSS: Max dev from orthonormality =   1.985085065075998E-010
   GDM::BFGS:   lowest Hinv e-value    0.181896593551720     
   GDM::BFGS:   highest Hinv e-value    15.2073683842634     
   GDM::      : max scaling in EWCs is          2.82842712474619     
   GDM::      : max rotation in step is       -4.436179004947125E-002
   GDM::        grad.step =  -5.272637950338576E-005
   ------- Leaving GDM -- hopefully with a step in the right direction! --------
 
   67    -688.2023365765      5.96E-03  Gap = -40.77 eV  Normal BFGS step
 
[...]
 
   ------------------- Entering Geometric Direct Minimization ------------------
   GDM::trust : actual energy change is        1.705302565824240E-012
   GDM::trust : predicted energy change was   -1.231356953632977E-013
   GDM::trust : updated trust radius is        0.108900000000000     
   GDM::WARNING energy changes are now smaller than effective accuracy.
   GDM::        calculation will continue, but THRESH should be increased
   GDM::        or SCF_CONVERGENCE decreased.
   GDM::        effective_thresh =   3.023189545925398E-009
   GDM:         diagonal hessian shift is      0.000000000000000E+000
   GDM::PreWSS: input subspace size is                 19
   GDM::PreWSS: working subspace size set to           18
   GDM::PrEWSS: # of linearly dependent vectors =           15
   GDM::PrEWSS: Max dev from orthonormality =   2.015193567572737E-013
   GDM::BFGS:   lowest Hinv e-value    0.151666107499036     
   GDM::BFGS:   highest Hinv e-value    6.67031634792884     
   GDM::      : max scaling in EWCs is          2.70552663228132     
   GDM::      : max rotation in step is       -5.176921945930636E-007
   GDM::        grad.step =  -6.716471137752536E-014
   ------- Leaving GDM -- hopefully with a step in the right direction! --------
 
   24    -688.4891240038      7.22E-08  Gap = 7.37 eV  Normal BFGS step
 
   ------------------- Entering Geometric Direct Minimization ------------------
   GDM::trust : actual energy change is       -7.958078640513122E-013
   GDM::trust : predicted energy change was   -1.007470670662881E-013
   GDM::trust : updated trust radius is        0.330000000000000     
   GDM:         diagonal hessian shift is      0.000000000000000E+000
   GDM::PreWSS: input subspace size is                 19
   GDM::PreWSS: working subspace size set to           18
   GDM::PrEWSS: # of linearly dependent vectors =           14
   GDM::PrEWSS: Max dev from orthonormality =   8.847981375348368E-012
   GDM::BFGS:   lowest Hinv e-value    0.152656576254256     
   GDM::BFGS:   highest Hinv e-value    6.88149049604477     
   GDM::      : max scaling in EWCs is          2.70552665454247     
   GDM::      : max rotation in step is       -2.968104224190214E-007
   GDM::        grad.step =  -1.651549501481378E-014
   ------- Leaving GDM -- hopefully with a step in the right direction! --------
 
   25    -688.4891240038      5.00E-08  Gap = 7.37 eV  Normal BFGS step
 
   ------------------- Entering Geometric Direct Minimization ------------------
   GDM::trust : actual energy change is       -4.547473508864641E-013
   GDM::trust : predicted energy change was   -2.477324252222066E-014
   GDM::trust : updated trust radius is        0.330000000000000     
   GDM:         diagonal hessian shift is      0.000000000000000E+000
   GDM::PreWSS: input subspace size is                 19
   GDM::PreWSS: working subspace size set to           18
   GDM::PrEWSS: # of linearly dependent vectors =           13
   GDM::PrEWSS: Max dev from orthonormality =   8.079190094711919E-012
   GDM::BFGS:   lowest Hinv e-value    0.156129046171630     
   GDM::BFGS:   highest Hinv e-value    6.89149447012334     
   GDM::      : max scaling in EWCs is          2.70552666743707     
   GDM::      : max rotation in step is       -1.661734235777275E-007
   GDM::        grad.step =  -5.202918720477539E-015
   ------- Leaving GDM -- hopefully with a step in the right direction! --------
 
   26    -688.4891240038      2.22E-08  Gap = 7.37 eV  Normal BFGS step
 
   ------------------- Entering Geometric Direct Minimization ------------------
   GDM::trust : actual energy change is        2.273736754432321E-013
   GDM::trust : predicted energy change was   -7.804378080716307E-015
   GDM::trust : updated trust radius is        0.108900000000000     
   GDM::WARNING energy changes are now smaller than effective accuracy.
   GDM::        calculation will continue, but THRESH should be increased
   GDM::        or SCF_CONVERGENCE decreased.
   GDM::        effective_thresh =   3.023189545925398E-009
   GDM:         diagonal hessian shift is      0.000000000000000E+000
   GDM::PreWSS: input subspace size is                 19
   GDM::PreWSS: working subspace size set to           18
   GDM::PrEWSS: # of linearly dependent vectors =           13
   GDM::PrEWSS: Max dev from orthonormality =   1.152396927883714E-011
   GDM::BFGS:   lowest Hinv e-value    0.205807640885676     
   GDM::BFGS:   highest Hinv e-value    6.75379905216470     
   GDM::      : max scaling in EWCs is          2.70552667198342     
   GDM::      : max rotation in step is       -8.787869866671482E-008
   GDM::        grad.step =  -3.030983842780877E-015
   ------- Leaving GDM -- hopefully with a step in the right direction! --------
 
   27    -688.4891240038      1.14E-08  Gap = 7.37 eV  Normal BFGS step
 
   ------------------- Entering Geometric Direct Minimization ------------------
   GDM::trust : actual energy change is       -5.684341886080801E-013
   GDM::trust : predicted energy change was   -4.546475764171318E-015
   GDM::trust : updated trust radius is        0.330000000000000     
   GDM:         diagonal hessian shift is      0.000000000000000E+000
   GDM::PreWSS: input subspace size is                 19
   GDM::PreWSS: working subspace size set to           18
   GDM::PrEWSS: # of linearly dependent vectors =           12
   GDM::PrEWSS: Max dev from orthonormality =   1.241698410758829E-011
   GDM::BFGS:   lowest Hinv e-value    0.218446868063576     
   GDM::BFGS:   highest Hinv e-value    6.71269218256291     
   GDM::      : max scaling in EWCs is          2.70552665165974     
   GDM::      : max rotation in step is        6.764247250303218E-008
   GDM::        grad.step =  -4.527094844502969E-015
   ------- Leaving GDM -- hopefully with a step in the right direction! --------
 
   28    -688.4891240038      2.41E-08  Gap = 7.37 eV  Normal BFGS step
 
   ------------------- Entering Geometric Direct Minimization ------------------
   GDM::trust : actual energy change is       -1.136868377216160E-013
   GDM::trust : predicted energy change was   -6.790642266754456E-015
   GDM::trust : updated trust radius is        0.330000000000000     
   GDM:         diagonal hessian shift is      0.000000000000000E+000
   GDM::PreWSS: input subspace size is                 19
   GDM::PreWSS: working subspace size set to           18
   GDM::PrEWSS: # of linearly dependent vectors =           11
   GDM::PrEWSS: Max dev from orthonormality =   1.046684613981164E-011
   GDM::BFGS:   lowest Hinv e-value    0.205584264548654     
   GDM::BFGS:   highest Hinv e-value    6.68410134754376     
   GDM::      : max scaling in EWCs is          2.70552666677438     
   GDM::      : max rotation in step is        1.979551603539066E-008
   GDM::        grad.step =  -6.618430408891944E-016
   ------- Leaving GDM -- hopefully with a step in the right direction! --------
 
   29    -688.4891240038      8.82E-09 Convergence criterion met
 ---------------------------------------
 One-Electron    Energy = -1662.1024127366
 Total Coulomb   Energy =   698.6190892885
 Alpha Exchange  Energy =    -5.8058026050
 Beta  Exchange  Energy =    -5.6680829832
 DFT   Exchange  Energy =   -45.9561008975
 DFT Correlation Energy =    -3.0177516448
 Nuclear Repu.   Energy =   335.4419375747
 Nuclear Attr.   Energy = -2279.8407701339
 Kinetic         Energy =   617.7383573973
 <S^2> = 2.0236
 SCF time:  CPU 199.87 s  wall 24.55 s
 SCF   energy in the final basis set = -688.4891240038
 Total energy in the final basis set = -688.4891240038
 
 --------------------------------------------------------------
 
                    Orbital Energies (a.u.)
 --------------------------------------------------------------
 
 Alpha MOs
 -- Occupied --
-88.777 -19.153 -19.153  -7.855  -5.816  -5.814  -5.813  -2.046
 -2.041  -2.034  -1.265  -1.264  -1.255  -1.250  -1.242  -1.238
 -1.237  -1.232  -1.209  -0.900  -0.890  -0.597  -0.392  -0.369
 -0.361  -0.352  -0.350  -0.350  -0.247  -0.229  -0.219  -0.211
 -0.194  -0.190  -0.178
 -- Virtual --
 -0.109  -0.105  -0.093  -0.086  -0.079  -0.074  -0.063  -0.045
 -0.036  -0.028  -0.027  -0.011   0.011   0.011   0.021   0.022
  0.028   0.036   0.041   0.043   0.048   0.054   0.074   0.074
  0.089   0.110   0.125   0.126   0.127   0.137   0.139   0.161
  0.166   0.175   0.203   0.205   0.207   0.209   0.226   0.237
  0.238   0.246   0.256   0.261   0.262   0.270   0.277   0.284
  0.294   0.312   0.324   0.326   0.331   0.343   0.408   0.452
  0.458   0.603   0.621   0.649   0.734   0.759   0.874   0.880
  0.902   0.916   0.952   0.966   1.168   1.177   1.210   1.264
  1.314   1.342   1.610   1.770   1.777   1.799   1.806   1.806
  1.809   1.842   1.872   1.896   1.908   2.013  10.822  12.899
 14.254
 
 Beta MOs
 -- Occupied --
-88.776 -19.153 -19.153  -7.855  -5.816  -5.814  -5.813  -2.042
 -2.026  -2.020  -1.257  -1.256  -1.243  -1.233  -1.233  -1.229
 -1.223  -1.216  -1.188  -0.899  -0.889  -0.597  -0.387  -0.365
 -0.357  -0.352  -0.350  -0.350  -0.241  -0.228  -0.211  -0.201
 -0.186
 -- Virtual --
 -0.117  -0.109  -0.103  -0.082  -0.082  -0.075  -0.071  -0.060
 -0.055  -0.041  -0.023  -0.023  -0.019  -0.004   0.015   0.020
  0.024   0.025   0.030   0.038   0.048   0.048   0.058   0.062
  0.077   0.077   0.094   0.113   0.126   0.129   0.132   0.138
  0.145   0.162   0.168   0.177   0.204   0.208   0.213   0.218
  0.231   0.244   0.250   0.251   0.257   0.264   0.267   0.271
  0.279   0.289   0.298   0.317   0.329   0.331   0.332   0.347
  0.413   0.456   0.462   0.603   0.621   0.650   0.736   0.760
  0.874   0.879   0.903   0.923   0.952   0.969   1.168   1.176
  1.212   1.265   1.315   1.343   1.611   1.771   1.777   1.799
  1.806   1.806   1.809   1.843   1.872   1.898   1.909   2.014
 10.824  12.900  14.254
 --------------------------------------------------------------
 
          Ground-State Mulliken Net Atomic Charges

     Atom                 Charge (a.u.)    Spin (a.u.)
  --------------------------------------------------------
      1 Zr                    0.471684       0.882028
      2 Zr                    0.471520       0.882505
      3 Zr                    1.260296       0.230394
      4 O                    -0.854633      -0.003645
      5 O                    -0.854686      -0.003638
      6 S                    -0.494181       0.012356
  --------------------------------------------------------
  Sum of atomic charges =     0.000000
  Sum of spin   charges =     2.000000

 -----------------------------------------------------------------
                    Cartesian Multipole Moments
 -----------------------------------------------------------------
    Charge (ESU x 10^10)
                 0.0000
    Dipole Moment (Debye)
         X      -0.0197      Y      -0.0083      Z     -11.6144
       Tot      11.6144
    Quadrupole Moments (Debye-Ang)
        XX     -89.0703     XY      -0.0032     YY     -91.1613
        XZ      -0.0230     YZ      -0.1221     ZZ    -103.0562
    Octopole Moments (Debye-Ang^2)
       XXX      -0.1371    XXY       0.0232    XYY       0.0516
       YYY      -0.4504    XXZ     -37.8397    XYZ       0.0872
       YYZ      12.2161    XZZ      -0.0016    YZZ      -0.1901
       ZZZ    -110.9321
    Hexadecapole Moments (Debye-Ang^3)
      XXXX    -815.9362   XXXY       0.6233   XXYY    -154.1113
      XYYY       0.4886   YYYY    -185.0534   XXXZ      -0.6332
      XXYZ      -0.0775   XYYZ      -0.4299   YYYZ       0.1610
      XXZZ    -423.5593   XYZZ       0.0268   YYZZ    -408.7659
      XZZZ      -2.2031   YZZZ      -0.5305   ZZZZ   -2500.3404
 -----------------------------------------------------------------
 Calculating analytic gradient of the SCF energy
 Gradient of SCF Energy
            1           2           3           4           5           6
    1  -0.0001259  -0.0001321   0.0001132   0.0000274  -0.0000044   0.0001218
    2  -0.0000314  -0.0000364   0.0000702   0.0000283   0.0000275  -0.0000581
    3  -0.0000824   0.0001423  -0.0000091  -0.0000219  -0.0000215  -0.0000073
 Max gradient component =       1.423E-04
 RMS gradient           =       7.529E-05
 Gradient time:  CPU 24.81 s  wall 4.50 s
 Geometry Optimization Parameters
   NAtoms,    NIC,     NZ,  NCons,   NDum,   NFix, NCnnct, MaxDiis
        6      36       0       0       0       0       0       0

 Cartesian Hessian Update
 Hessian Updated using BFGS Update


** GEOMETRY OPTIMIZATION IN DELOCALIZED INTERNAL COORDINATES **
   Searching for a Minimum

   Optimization Cycle:  25

                       Coordinates (Angstroms)
     ATOM                X               Y               Z
      1  Zr        1.3358347110    0.0010641494   -1.7999907827
      2  Zr       -1.3429764287    0.0057434775   -1.7938384979
      3  Zr        0.0019357811   -0.0030973577    1.1300624943
      4  O        -1.7425128348   -0.0012521305    0.0859369541
      5  O         1.7418799531   -0.0074711812    0.0783905411
      6  S         0.0058388182    0.0050130425    3.3952292911
   Point Group: c1    Number of degrees of freedom:    12


   Energy is   -688.489124004

 Hessian Updated using BFGS Update

 12 Hessian modes will be used to form the next step
  Hessian Eigenvalues:
     0.016226    0.022265    0.038957    0.065573    0.076763    0.157744
     0.197886    0.220988    0.305821    0.367392    1.189890    1.534645

 Minimum Search - Taking Simple RFO Step
 Searching for Lamda that Minimizes Along All modes
 Value Taken    Lamda =   0.00000000
 Step Taken.  Stepsize is  0.002826

                             Maximum     Tolerance    Cnvgd?
         Gradient           0.000107      0.000300     YES
         Displacement       0.002585      0.001200      NO
         Energy change      0.000001      0.000001     YES


                       Distance Matrix (Angstroms)
             Zr(  1)   Zr(  2)   Zr(  3)   O (  4)   O (  5)
   Zr(  2)  2.678822
   Zr(  3)  3.219397  3.218395
   O (  4)  3.610118  1.921779  2.033053
   O (  5)  1.921786  3.608567  2.033086  3.484407
   S (  6)  5.362762  5.361504  2.265185  3.742751  3.743717
 
 Final energy is   -688.489124003781     


 ******************************
 **  OPTIMIZATION CONVERGED  **
 ******************************

                       Coordinates (Angstroms)
     ATOM                X               Y               Z
      1  Zr        1.3358347110    0.0010641494   -1.7999907827
      2  Zr       -1.3429764287    0.0057434775   -1.7938384979
      3  Zr        0.0019357811   -0.0030973577    1.1300624943
      4  O        -1.7425128348   -0.0012521305    0.0859369541
      5  O         1.7418799531   -0.0074711812    0.0783905411
      6  S         0.0058388182    0.0050130425    3.3952292911

Z-matrix Print:
$molecule
0 3
Zr
O  1 2.033053
Zr 2 1.921779 1 108.902997
O  1 2.033086 2 117.947793 3 0.314595 0
Zr 4 1.921786 1 108.951336 2 -0.317910 0
S  1 2.265185 2 121.000560 3 -179.526772 0
$end

 
 --------------------------------------------------------------
 
                    Orbital Energies (a.u.)
 --------------------------------------------------------------
 
 Alpha MOs
 -- Occupied --
-88.777 -19.153 -19.153  -7.855  -5.816  -5.814  -5.813  -2.046
 -2.041  -2.034  -1.265  -1.264  -1.255  -1.250  -1.242  -1.238
 -1.237  -1.232  -1.209  -0.900  -0.890  -0.597  -0.392  -0.369
 -0.361  -0.352  -0.350  -0.350  -0.247  -0.229  -0.219  -0.211
 -0.194  -0.190  -0.178
 -- Virtual --
 -0.109  -0.105  -0.093  -0.086  -0.079  -0.074  -0.063  -0.045
 -0.036  -0.028  -0.027  -0.011   0.011   0.011   0.021   0.022
  0.028   0.036   0.041   0.043   0.048   0.054   0.074   0.074
  0.089   0.110   0.125   0.126   0.127   0.137   0.139   0.161
  0.166   0.175   0.203   0.205   0.207   0.209   0.226   0.237
  0.238   0.246   0.256   0.261   0.262   0.270   0.277   0.284
  0.294   0.312   0.324   0.326   0.331   0.343   0.408   0.452
  0.458   0.603   0.621   0.649   0.734   0.759   0.874   0.880
  0.902   0.916   0.952   0.966   1.168   1.177   1.210   1.264
  1.314   1.342   1.610   1.770   1.777   1.799   1.806   1.806
  1.809   1.842   1.872   1.896   1.908   2.013  10.822  12.899
 14.254
 
 Beta MOs
 -- Occupied --
-88.776 -19.153 -19.153  -7.855  -5.816  -5.814  -5.813  -2.042
 -2.026  -2.020  -1.257  -1.256  -1.243  -1.233  -1.233  -1.229
 -1.223  -1.216  -1.188  -0.899  -0.889  -0.597  -0.387  -0.365
 -0.357  -0.352  -0.350  -0.350  -0.241  -0.228  -0.211  -0.201
 -0.186
 -- Virtual --
 -0.117  -0.109  -0.103  -0.082  -0.082  -0.075  -0.071  -0.060
 -0.055  -0.041  -0.023  -0.023  -0.019  -0.004   0.015   0.020
  0.024   0.025   0.030   0.038   0.048   0.048   0.058   0.062
  0.077   0.077   0.094   0.113   0.126   0.129   0.132   0.138
  0.145   0.162   0.168   0.177   0.204   0.208   0.213   0.218
  0.231   0.244   0.250   0.251   0.257   0.264   0.267   0.271
  0.279   0.289   0.298   0.317   0.329   0.331   0.332   0.347
  0.413   0.456   0.462   0.603   0.621   0.650   0.736   0.760
  0.874   0.879   0.903   0.923   0.952   0.969   1.168   1.176
  1.212   1.265   1.315   1.343   1.611   1.771   1.777   1.799
  1.806   1.806   1.809   1.843   1.872   1.898   1.909   2.014
 10.824  12.900  14.254
 --------------------------------------------------------------
 
          Ground-State Mulliken Net Atomic Charges

     Atom                 Charge (a.u.)    Spin (a.u.)
  --------------------------------------------------------
      1 Zr                    0.471684       0.882028
      2 Zr                    0.471520       0.882505
      3 Zr                    1.260296       0.230394
      4 O                    -0.854633      -0.003645
      5 O                    -0.854686      -0.003638
      6 S                    -0.494181       0.012356
  --------------------------------------------------------
  Sum of atomic charges =     0.000000
  Sum of spin   charges =     2.000000

 -----------------------------------------------------------------
                    Cartesian Multipole Moments
 -----------------------------------------------------------------
    Charge (ESU x 10^10)
                 0.0000
    Dipole Moment (Debye)
         X      -0.0197      Y      -0.0083      Z     -11.6144
       Tot      11.6144
    Quadrupole Moments (Debye-Ang)
        XX     -89.0703     XY      -0.0032     YY     -91.1613
        XZ      -0.0230     YZ      -0.1221     ZZ    -103.0562
    Octopole Moments (Debye-Ang^2)
       XXX      -0.1371    XXY       0.0232    XYY       0.0516
       YYY      -0.4504    XXZ     -37.8397    XYZ       0.0872
       YYZ      12.2161    XZZ      -0.0016    YZZ      -0.1901
       ZZZ    -110.9321
    Hexadecapole Moments (Debye-Ang^3)
      XXXX    -815.9362   XXXY       0.6233   XXYY    -154.1113
      XYYY       0.4886   YYYY    -185.0534   XXXZ      -0.6332
      XXYZ      -0.0775   XYYZ      -0.4299   YYYZ       0.1610
      XXZZ    -423.5593   XYZZ       0.0268   YYZZ    -408.7659
      XZZZ      -2.2031   YZZZ      -0.5305   ZZZZ   -2500.3404
 -----------------------------------------------------------------
Archival summary:
1\1\hpc3455\OPT\ProcedureUnspecified\BasisUnspecified\r312(+,3)\liqiuy\FriJan1719:58:262020FriJan1719:58:262020\0\\#,OPT,ProcedureUnspecified,BasisUnspecified,\\84,3\Zr\O,1,2.03305\Zr,2,1.92178,1,108.903\O,1,2.03309,2,117.948,3,0.314595,0\Zr,4,1.92179,1,108.951,2,-0.31791,0\S,1,2.26518,2,121.001,3,-179.527,0\\\@

 Total job time:  1126.59s(wall), 9849.69s(cpu) 
 Fri Jan 17 19:58:26 2020

        *************************************************************
        *                                                           *
        *  Thank you very much for using Q-Chem.  Have a nice day.  *
        *                                                           *
        *************************************************************


0 sent ACK to 0 
now end server 0 ... 
cleanup process ... done
