
Running Job 1 of 2 ZrOx.in
qchem ZrOx.in_22351.0 /tmp/5732698.priya/ZrOx.save/ 1
/usr/usc/qchem/4.4/bin/mpi/mpirun_qchem -machinefile /usr/usc/qchem/4.4/bin/mpi/machines -np 1 /usr/usc/qchem/4.4/exe/qcprog.exe ZrOx.in_22351.0 /tmp/5732698.priya/ZrOx.save/

Process 0 of 1 is on hpc3926.hpcc.usc.edu - thread support 0
initial socket setup ...start
initial socket setup ...done 
now start server 0 ... 
Check license passed

                  Welcome to Q-Chem
     A Quantum Leap Into The Future Of Chemistry


 Q-Chem 4.4, Q-Chem, Inc., Pleasanton, CA (2016)

 Y. Shao,  Z. Gan,  E. Epifanovsky,  A. T. B. Gilbert,  M. Wormit,  
 J. Kussmann,  A. W. Lange,  A. Behn,  J. Deng,  X. Feng,  D. Ghosh,  
 M. Goldey,  P. R. Horn,  L. D. Jacobson,  I. Kaliman,  F.Rob,  
 R. Z. Khaliullin,  T. Kus,  A. Landau,  J. Liu,  E. I. Proynov,  Y. M. Rhee,  
 R. M. Richard,  M. A. Rohrdanz,  R. P. Steele,  E. J. Sundstrom,  
 H. L. Woodcock III,  P. M. Zimmerman,  D. Zuev,  B. Albrecht,  E. Alguire,  
 B. Austin,  S. A. Baeppler,  G. J. O. Beran,  Y. A. Bernard,  E. Berquist,  
 K. Brandhorst,  K. B. Bravaya,  S. T. Brown,  D. Casanova,  C.-M. Chang,  
 Y. Chen,  S. H. Chien,  K. D. Closser,  M. P. Coons,  D. L. Crittenden,  
 S. Dasgupta,  M. Diedenhofen,  R. A. DiStasio Jr.,  H. Do,  A. D. Dutoi,  
 R. G. Edgar,  P.-T. Fang,  S. Fatehi,  Q. Feng,  L. Fusti-Molnar,  
 A. Ghysels,  A. Golubeva-Zadorozhnaya,  J. Gomes,  A. Gunina,  
 M. W. D. Hanson-Heine,  P. H. P. Harbach,  A. W. Hauser,  E. G. Hohenstein,  
 Z. C. Holden,  K. Hui,  T.-C. Jagau,  H. Ji,  B. Kaduk,  K. Khistyaev,  
 Jaehoon Kim,  Jihan Kim,  R. A. King,  P. Klunzinger,  D. Kosenkov,  
 T. Kowalczyk,  C. M. Krauter,  A. Kunitsa,  K. U. Lao,  A. Laurent,  
 K. V. Lawler,  D. Lefrancois,  S. Lehtola,  S. V. Levchenko,  C. Y. Lin,  
 Y.-S. Lin,  F. Liu,  E. Livshits,  R. C. Lochan,  A. Luenser,  P. Manohar,  
 S. F. Manzer,  S.-P. Mao,  Y. Mao,  N. Mardirossian,  A. V. Marenich,  
 L. A. Martinez-Martinez,  S. A. Maurer,  N. J. Mayhall,  J.-M. Mewes,  
 A. F. Morrison,  K. Nanda,  C. M. Oana,  R. Olivares-Amaya,  D. P. O'Neill,  
 J. A. Parkhill,  T. M. Perrine,  R. Peverati,  P. A. Pieniazek,  F. Plasser,  
 A. Prociuk,  D. R. Rehn,  E. Rosta,  N. J. Russ,  N. Sergueev,  
 S. M. Sharada,  S. Sharma,  D. W. Small,  A. Sodt,  T. Stauch,  T. Stein,  
 D. Stuck,  Y.-C. Su,  A. J. W. Thom,  T. Tsuchimochi,  L. Vogt,  O. Vydrov,  
 T. Wang,  M. A. Watson,  J. Wenzel,  A. White,  C. F. Williams,  
 V. Vanovschi,  S. Yeganeh,  S. R. Yost,  Z.-Q. You,  I. Y. Zhang,  X. Zhang,  
 Y. Zhao,  B. R. Brooks,  G. K. L. Chan,  D. M. Chipman,  C. J. Cramer,  
 W. A. Goddard III,  M. S. Gordon,  W. J. Hehre,  A. Klamt,  
 H. F. Schaefer III,  M. W. Schmidt,  C. D. Sherrill,  D. G. Truhlar,  
 A. Warshel,  X. Xu,  A. Aspuru-Guzik,  R. Baer,  A. T. Bell,  N. A. Besley,  
 J.-D. Chai,  A. Dreuw,  B. D. Dunietz,  T. R. Furlani,  S. R. Gwaltney,  
 C.-P. Hsu,  Y. Jung,  J. Kong,  D. S. Lambrecht,  W. Liang,  C. Ochsenfeld,  
 V. A. Rassolov,  L. V. Slipchenko,  J. E. Subotnik,  T. Van Voorhis,  
 J. M. Herbert,  A. I. Krylov,  P. M. W. Gill,  M. Head-Gordon

 Contributors to earlier versions of Q-Chem not listed above: 
 R. D. Adamson,  J. Baker,  E. F. C. Byrd,  A. K. Chakraborty,  C.-L. Cheng,  
 H. Dachsel,  R. J. Doerksen,  G. Hawkins,  A. Heyden,  S. Hirata,  
 G. Kedziora,  F. J. Keil,  C. Kelley,  P. P. Korambath,  W. Kurlancheek,  
 A. M. Lee,  M. S. Lee,  D. Liotard,  I. Lotan,  P. E. Maslen,  N. Nair,  
 D. Neuhauser,  R. Olson,  B. Peters,  J. Ritchie,  N. E. Schultz,  
 N. Shenvi,  A. C. Simmonett,  K. S. Thanthiriwatte,  Q. Wu,  W. Zhang

 Please cite Q-Chem as follows:
 Y. Shao et al., Mol. Phys. 113, 184-215 (2015)
 DOI: 10.1080/00268976.2014.952696

 Q-Chem 4.4.1 for Intel X86 Linux

 Parts of Q-Chem use Armadillo 5.200.1 (Boston Tea Smuggler).
 http://arma.sourceforge.net/

 Q-Chem begins on Fri Jan 17 19:40:44 2020  

Host: 
0

     Scratch files written to /tmp/5732698.priya/ZrOx.save//
 Jul2716 11668_ 21447  21445 5558   
 Parallel job on  1  processors
Processing $rem in /usr/usc/qchem/4.4/config/preferences.
 MEM_TOTAL  2000 

Checking the input file for inconsistencies... 	...done.

--------------------------------------------------------------
User input:
--------------------------------------------------------------
$comment
--------------------------------------------------------
A SINGLE POINT DFT CALCULATION WITH BASIS SET PROJECTION
--------------------------------------------------------
$end

$molecule
0 3
Zr 0.42008 0.00021 0.05415
O 1.35245 1.41212 -0.19851
O -1.16641 0.00621 1.12923
O 1.35000 -1.41463 -0.19127
S -1.85370 -0.00198 -0.46623
$end

$rem
JOBTYPE   SP
METHOD   B3LYP
BASIS   GEN
ECP   GEN
MAX_SCF_CYCLES   200
SCF_CONVERGENCE 8
SCF_PRINT 1
PDB_PRINT 2
THRESH 14
VARTHRESH 14
INCDFT FALSE
SYMMETRY False
Sym_ignore True
SCF_ALGORITHM GDM
XC_GRID 000128000302
DFT_D           EMPIRICAL_GRIMME3
DFT_D3_S6       1000
DFT_D3_RS6     1261
DFT_D3_S8      1703
DFT_D3_3BODY    FALSE
$end

$basis
O
6-31+G**
****
S
6-31+G**
****
Zr
LanL2DZ
****
$end

$ecp
Zr
LanL2DZ
****
$end

--------------------------------------------------------------
 ----------------------------------------------------------------
             Standard Nuclear Orientation (Angstroms)
    I     Atom           X                Y                Z
 ----------------------------------------------------------------
    1      Zr      0.4200800000     0.0002100000     0.0541500000
    2      O       1.3524500000     1.4121200000    -0.1985100000
    3      O      -1.1664100000     0.0062100000     1.1292300000
    4      O       1.3500000000    -1.4146300000    -0.1912700000
    5      S      -1.8537000000    -0.0019800000    -0.4662300000
 ----------------------------------------------------------------
 Nuclear Repulsion Energy =   240.3094046686 hartrees
 There are       27 alpha and       25 beta electrons

 Q-Chem warning in module /home/scratch/svnadmin/11668_zgan/qchem/forms1/BasisType.C, line 1419:

 Setting pure/cartesian flag to 2111 for general basis


 Requested basis set is non-standard
 There are 29 shells and 98 basis functions

 Total QAlloc Memory Limit   2000 MB
 Mega-Array Size        61 MB
 MEM_STATIC part        62 MB

                       Distance Matrix (Angstroms)
             Zr(  1)   O (  2)   O (  3)   O (  4)
   O (  2)  1.710743
   O (  3)  1.916451  3.175552
   O (  4)  1.710776  2.826760  3.177236
   S (  5)  2.332568  3.514363  1.737218  3.512104
 
 A cutoff of  1.0D-14 yielded    423 shell pairs
 There are      4966 function pairs (      5603 Cartesian)
 
 -------------------------------------------------------
 OpenMP Integral Computing Module                       
 Release: version 1.0, May 2013, Q-Chem Inc. Pittsburgh 
 -------------------------------------------------------
 Integral Job Info:
 Integral job number is                      11
 Integral operator is                         1
 short-range coefficients                     0
 long-range coefficients              100000000
 Omega coefficients                           0
 if combine SR and LR in K                    0
 Integral screening is                        0
 Integral computing path is                   2
 max size of driver memory is            800000
 size of driver memory is                593474
 size of scratch memory is             15166112
 max col of scratch BK array               1296
 max len of scratch array in speh3          155
 max len of scratch index in speh4           18
 max int batch size is                      520
 min int batch size is                       52
 fixed nKL is                                52
 max L of basis functions is                  2
 order of int derivative is                   0
 number of shells is                         29
 number of basis is                         104
 number of cartesian basis is               104
 number of contracted shell pairs           423
 number of primitive shell pairs           2111
 maxK2 (contraction) of shell pair           36
 max number of K2 of shell pair               1
 max number of CS2 of shell pair             40
 max number of PS2 of shell pair            222
 mem total for path MDJ                   23704
 -------------------------------------------------------
 Requested basis set is non-standard
 Compound shells will be simplified
 There are 42 shells and 98 basis functions
 A cutoff of  1.0D-14 yielded    887 shell pairs
 There are      4927 function pairs (      5564 Cartesian)
 Smallest overlap matrix eigenvalue = 6.13E-04

 Scale SEOQF with 1.000000e-01/1.000000e-01/1.000000e-01

 Standard Electronic Orientation quadrupole field applied
 Nucleus-field energy     =     0.0000000042 hartrees
 Guess MOs from core Hamiltonian diagonalization
 An unrestricted hybrid HF-DFT SCF calculation will be
 performed using Geometric Direct Minimization
 Exchange:     0.2000 Hartree-Fock + 0.0800 Slater + 0.7200 B88
 Correlation:  0.1900 VWN1RPA + 0.8100 LYP
 Using Euler-Maclaurin-Lebedev (128,302) quadrature formula
 Dispersion:   Grimme D3
 SCF converges when RMS gradient is below 1.0E-08
 Maximum number of minimization steps = 200
 using 12 threads for integral computing 
 -------------------------------------------------------
 OpenMP BLAS3 based DFT computing Module                
 Release: version 1.0, May 2013, Q-Chem Inc. Pittsburgh 
 -------------------------------------------------------
 
   ------------------- Entering Geometric Direct Minimization ------------------
   GDM:         diagonal hessian shift is      0.000000000000000E+000
   GDM::PreWSS: input subspace size is                  1
   GDM::PreWSS: working subspace size set to            1
   GDM::PrEWSS: # of linearly dependent vectors =            0
   GDM::PrEWSS: Max dev from orthonormality =   0.000000000000000E+000
   GDM::BFGS:   lowest Hinv e-value     1.00000000000000     
   GDM::BFGS:   highest Hinv e-value    1.00000000000000     
   GDM::      : max scaling in EWCs is          1.41421356237309     
   GDM::      : max rotation in step is       -9.045512070109839E-002
   GDM::        grad.step =   -2.47878170854555     
   ------- Leaving GDM -- hopefully with a step in the right direction! --------
 
 ---------------------------------------
  Cycle       Energy        RMS Gradient
 ---------------------------------------
    1    -645.4837778897      1.57E+00  Gap = 0.34 eV  Descent step
 
   ------------------- Entering Geometric Direct Minimization ------------------
   GDM::trust : actual energy change is        -2.44515237711062     
   GDM::trust : predicted energy change was   -0.163350000000000     
   GDM::trust : updated trust radius is        0.330000000000000     
   GDM::search:  On step            1 .  The current bracket is:
       left   : x =  0.0000E+00, e =      -645.4837778897, g = -0.7357E+01
       current: x =  0.3369E+00, e =      -647.9289302668, g = -0.7111E+01
       right  : x =  0.1000E+04, e =      1000.0000000000, g =  0.1000E+04
       next   : x =  0.3369E+01
   GDM::      : max rotation in step is       -0.904551207010984     
   ------- Leaving GDM -- hopefully with a step in the right direction! --------
 
    2    -647.9289302668      4.90E-01  Gap = 186.17 eV  Line search: understep
 
   ------------------- Entering Geometric Direct Minimization ------------------
   GDM::trust : actual energy change is        -11.3438298124573     
   GDM::trust : predicted energy change was   -0.163350000000000     
   GDM::trust : updated trust radius is        0.330000000000000     
   GDM:         diagonal hessian shift is      0.000000000000000E+000
   GDM::PreWSS: input subspace size is                  2
   GDM::PreWSS: working subspace size set to            2
   GDM::PrEWSS: # of linearly dependent vectors =            0
   GDM::PrEWSS: Max dev from orthonormality =   5.828670879282072E-016
   GDM::BFGS:   lowest Hinv e-value    0.361555783552272     
   GDM::BFGS:   highest Hinv e-value    1.82537744167120     
   GDM::      : max scaling in EWCs is          2.82842712474619     
   GDM::      : max rotation in step is       -0.194309900214455     
   GDM::        grad.step =   -2.04131264699107     
   ------- Leaving GDM -- hopefully with a step in the right direction! --------
 
    3    -656.8276077022      1.36E+00  Gap = 186.17 eV  Descent step
 
   ------------------- Entering Geometric Direct Minimization ------------------
   GDM::trust : actual energy change is        -1.97107095153274     
   GDM::trust : predicted energy change was   -0.189026844785495     
   GDM::trust : updated trust radius is        0.330000000000000     
   GDM:         diagonal hessian shift is      0.000000000000000E+000
   GDM::PreWSS: input subspace size is                  3
   GDM::PreWSS: working subspace size set to            3
   GDM::PrEWSS: # of linearly dependent vectors =            0
   GDM::PrEWSS: Max dev from orthonormality =   3.214789545680219E-014
   GDM::BFGS:   lowest Hinv e-value    0.455229333292005     
   GDM::BFGS:   highest Hinv e-value    3.27427720364958     
   GDM::      : max scaling in EWCs is          2.82842712474619     
   GDM::      : max rotation in step is       -0.430364768568067     
   GDM::        grad.step =   -2.01638952246243     
   ------- Leaving GDM -- hopefully with a step in the right direction! --------
 
    4    -658.7986786537      2.82E+00  Gap = 186.17 eV  Descent step
 
   ------------------- Entering Geometric Direct Minimization ------------------
   GDM::trust : actual energy change is        -1.86605036781464     
   GDM::trust : predicted energy change was   -0.149199288939048     
   GDM::trust : updated trust radius is        0.330000000000000     
   GDM:         diagonal hessian shift is      0.000000000000000E+000
   GDM::PreWSS: input subspace size is                  4
   GDM::PreWSS: working subspace size set to            4
   GDM::PrEWSS: # of linearly dependent vectors =            0
   GDM::PrEWSS: Max dev from orthonormality =   2.071259830316308E-014
   GDM::BFGS:   lowest Hinv e-value    0.398990339318151     
   GDM::BFGS:   highest Hinv e-value    3.69648952965112     
   GDM::      : max scaling in EWCs is          2.82842712474619     
   GDM::      : max rotation in step is       -0.227321485070777     
   GDM::        grad.step =   -1.64810392947703     
   ------- Leaving GDM -- hopefully with a step in the right direction! --------
 
    5    -660.6647290215      1.22E+00  Gap = 186.17 eV  Descent step
 
   ------------------- Entering Geometric Direct Minimization ------------------
   GDM::trust : actual energy change is        -1.58982777805193     
   GDM::trust : predicted energy change was   -0.151093919517208     
   GDM::trust : updated trust radius is        0.330000000000000     
   GDM:         diagonal hessian shift is      0.000000000000000E+000
   GDM::PreWSS: input subspace size is                  5
   GDM::PreWSS: working subspace size set to            5
   GDM::PrEWSS: # of linearly dependent vectors =            0
   GDM::PrEWSS: Max dev from orthonormality =   1.493406093233673E-013
   GDM::BFGS:   lowest Hinv e-value    0.333223768921437     
   GDM::BFGS:   highest Hinv e-value    4.05869145289258     
   GDM::      : max scaling in EWCs is          2.82842712474619     
   GDM::      : max rotation in step is       -0.294576814134138     
   GDM::        grad.step =   -1.53886608834376     
   ------- Leaving GDM -- hopefully with a step in the right direction! --------
 
    6    -662.2545567996      1.47E+00  Gap = 186.17 eV  Descent step
 
   ------------------- Entering Geometric Direct Minimization ------------------
   GDM::trust : actual energy change is        -1.44549647026122     
   GDM::trust : predicted energy change was   -0.146703799266711     
   GDM::trust : updated trust radius is        0.330000000000000     
   GDM:         diagonal hessian shift is      0.000000000000000E+000
   GDM::PreWSS: input subspace size is                  6
   GDM::PreWSS: working subspace size set to            6
   GDM::PrEWSS: # of linearly dependent vectors =            0
   GDM::PrEWSS: Max dev from orthonormality =   2.904404147741069E-013
   GDM::BFGS:   lowest Hinv e-value    0.336663598513212     
   GDM::BFGS:   highest Hinv e-value    4.39786596000994     
   GDM::      : max scaling in EWCs is          2.82842712474619     
   GDM::      : max rotation in step is       -0.254338795220097     
   GDM::        grad.step =   -1.18792772007702     
   ------- Leaving GDM -- hopefully with a step in the right direction! --------
 
    7    -663.7000532698      9.81E-01  Gap = 186.17 eV  Descent step
 
   ------------------- Entering Geometric Direct Minimization ------------------
   GDM::trust : actual energy change is        -1.10403240453581     
   GDM::trust : predicted energy change was   -0.152143719936169     
   GDM::trust : updated trust radius is        0.330000000000000     
   GDM:         diagonal hessian shift is      0.000000000000000E+000
   GDM::PreWSS: input subspace size is                  7
   GDM::PreWSS: working subspace size set to            7
   GDM::PrEWSS: # of linearly dependent vectors =            0
   GDM::PrEWSS: Max dev from orthonormality =   3.482856364422915E-013
   GDM::BFGS:   lowest Hinv e-value    0.296564858447380     
   GDM::BFGS:   highest Hinv e-value    5.10383330523546     
   GDM::      : max scaling in EWCs is          2.82842712474619     
   GDM::      : max rotation in step is        0.120564989254963     
   GDM::        grad.step =  -0.906550222963527     
   ------- Leaving GDM -- hopefully with a step in the right direction! --------
 
    8    -664.8040856744      5.68E-01  Gap = 186.17 eV  Descent step
 
   ------------------- Entering Geometric Direct Minimization ------------------
   GDM::trust : actual energy change is       -0.845228562740544     
   GDM::trust : predicted energy change was   -0.151948129751910     
   GDM::trust : updated trust radius is        0.330000000000000     
   GDM:         diagonal hessian shift is      0.000000000000000E+000
   GDM::PreWSS: input subspace size is                  8
   GDM::PreWSS: working subspace size set to            8
   GDM::PrEWSS: # of linearly dependent vectors =            0
   GDM::PrEWSS: Max dev from orthonormality =   5.084188278714485E-013
   GDM::BFGS:   lowest Hinv e-value    0.271251723480981     
   GDM::BFGS:   highest Hinv e-value    5.63756770305472     
   GDM::      : max scaling in EWCs is          2.82842712474619     
   GDM::      : max rotation in step is       -0.144783857039318     
   GDM::        grad.step =  -0.774151821786131     
   ------- Leaving GDM -- hopefully with a step in the right direction! --------
 
    9    -665.6493142371      5.39E-01  Gap = 186.17 eV  Descent step
 
   ------------------- Entering Geometric Direct Minimization ------------------
   GDM::trust : actual energy change is       -0.721832033658075     
   GDM::trust : predicted energy change was   -0.147924775738036     
   GDM::trust : updated trust radius is        0.330000000000000     
   GDM:         diagonal hessian shift is      0.000000000000000E+000
   GDM::PreWSS: input subspace size is                  9
   GDM::PreWSS: working subspace size set to            9
   GDM::PrEWSS: # of linearly dependent vectors =            0
   GDM::PrEWSS: Max dev from orthonormality =   2.225771650321562E-013
   GDM::BFGS:   lowest Hinv e-value    0.233926455149376     
   GDM::BFGS:   highest Hinv e-value    6.18259285045241     
   GDM::      : max scaling in EWCs is          2.82842712474619     
   GDM::      : max rotation in step is       -0.112306433103938     
   GDM::        grad.step =  -0.671829738986162     
   ------- Leaving GDM -- hopefully with a step in the right direction! --------
 
   10    -666.3711462708      4.81E-01  Gap = 186.17 eV  Descent step
 
   ------------------- Entering Geometric Direct Minimization ------------------
   GDM::trust : actual energy change is       -0.613736698727280     
   GDM::trust : predicted energy change was   -0.142795290895822     
   GDM::trust : updated trust radius is        0.330000000000000     
   GDM:         diagonal hessian shift is      0.000000000000000E+000
   GDM::PreWSS: input subspace size is                 10
   GDM::PreWSS: working subspace size set to           10
   GDM::PrEWSS: # of linearly dependent vectors =            0
   GDM::PrEWSS: Max dev from orthonormality =   5.003272102177547E-013
   GDM::BFGS:   lowest Hinv e-value    0.206431576111243     
   GDM::BFGS:   highest Hinv e-value    6.63019390291414     
   GDM::      : max scaling in EWCs is          2.82842712474619     
   GDM::      : max rotation in step is       -0.155953864393222     
   GDM::        grad.step =  -0.561759909021972     
   ------- Leaving GDM -- hopefully with a step in the right direction! --------
 
   11    -666.9848829695      4.06E-01  Gap = 186.17 eV  Descent step
 
   ------------------- Entering Geometric Direct Minimization ------------------
   GDM::trust : actual energy change is       -0.520137336139328     
   GDM::trust : predicted energy change was   -0.138786132825346     
   GDM::trust : updated trust radius is        0.330000000000000     
   GDM:         diagonal hessian shift is      0.000000000000000E+000
   GDM::PreWSS: input subspace size is                 11
   GDM::PreWSS: working subspace size set to           11
   GDM::PrEWSS: # of linearly dependent vectors =            0
   GDM::PrEWSS: Max dev from orthonormality =   9.048768678798780E-013
   GDM::BFGS:   lowest Hinv e-value    0.187458411469168     
   GDM::BFGS:   highest Hinv e-value    7.06784145071482     
   GDM::      : max scaling in EWCs is          2.82842712474619     
   GDM::      : max rotation in step is       -0.170634933532159     
   GDM::        grad.step =  -0.464652796896411     
   ------- Leaving GDM -- hopefully with a step in the right direction! --------
 
   12    -667.5050203056      3.11E-01  Gap = 186.17 eV  Descent step
 
   ------------------- Entering Geometric Direct Minimization ------------------
   GDM::trust : actual energy change is       -0.428975790849790     
   GDM::trust : predicted energy change was   -0.134352798195530     
   GDM::trust : updated trust radius is        0.330000000000000     
   GDM:         diagonal hessian shift is      0.000000000000000E+000
   GDM::PreWSS: input subspace size is                 12
   GDM::PreWSS: working subspace size set to           12
   GDM::PrEWSS: # of linearly dependent vectors =            0
   GDM::PrEWSS: Max dev from orthonormality =   6.348255254806645E-013
   GDM::BFGS:   lowest Hinv e-value    0.173924398468731     
   GDM::BFGS:   highest Hinv e-value    7.43494365907521     
   GDM::      : max scaling in EWCs is          2.82842712474619     
   GDM::      : max rotation in step is       -0.141058571612497     
   GDM::        grad.step =  -0.417527111796306     
   ------- Leaving GDM -- hopefully with a step in the right direction! --------
 
   13    -667.9339960965      3.80E-01  Gap = 186.17 eV  Descent step
 
   ------------------- Entering Geometric Direct Minimization ------------------
   GDM::trust : actual energy change is       -0.407247174245867     
   GDM::trust : predicted energy change was   -0.131877273946901     
   GDM::trust : updated trust radius is        0.330000000000000     
   GDM:         diagonal hessian shift is      0.000000000000000E+000
   GDM::PreWSS: input subspace size is                 13
   GDM::PreWSS: working subspace size set to           13
   GDM::PrEWSS: # of linearly dependent vectors =            0
   GDM::PrEWSS: Max dev from orthonormality =   1.303283869713567E-012
   GDM::BFGS:   lowest Hinv e-value    0.124653329177712     
   GDM::BFGS:   highest Hinv e-value    10.8156510534712     
   GDM::      : max scaling in EWCs is          2.82842712474619     
   GDM::      : max rotation in step is       -0.516431550941827     
   GDM::        grad.step =  -0.592979033165985     
   ------- Leaving GDM -- hopefully with a step in the right direction! --------
 
   14    -668.3412432707      9.94E-01  Gap = 186.17 eV  Descent step
 
   ------------------- Entering Geometric Direct Minimization ------------------
   GDM::trust : actual energy change is       -0.460942081772373     
   GDM::trust : predicted energy change was   -0.214442195539428     
   GDM::trust : updated trust radius is        0.330000000000000     
   GDM:         diagonal hessian shift is      0.000000000000000E+000
   GDM::PreWSS: input subspace size is                 14
   GDM::PreWSS: working subspace size set to           14
   GDM::PrEWSS: # of linearly dependent vectors =            0
   GDM::PrEWSS: Max dev from orthonormality =   1.779409952717970E-012
   GDM::BFGS:   lowest Hinv e-value    0.192834112718241     
   GDM::BFGS:   highest Hinv e-value    9.45346136245034     
   GDM::      : max scaling in EWCs is          2.82842712474619     
   GDM::      : max rotation in step is       -0.391107357375794     
   GDM::        grad.step =  -0.561833240849618     
   ------- Leaving GDM -- hopefully with a step in the right direction! --------
 
   15    -668.8021853525      8.00E-01  Gap = -163.29 eV  Descent step
 
   ------------------- Entering Geometric Direct Minimization ------------------
   GDM::trust : actual energy change is       -0.410150705495312     
   GDM::trust : predicted energy change was   -0.224233469328633     
   GDM::trust : updated trust radius is        0.330000000000000     
   GDM:         diagonal hessian shift is      0.000000000000000E+000
   GDM::PreWSS: input subspace size is                 15
   GDM::PreWSS: working subspace size set to           15
   GDM::PrEWSS: # of linearly dependent vectors =            0
   GDM::PrEWSS: Max dev from orthonormality =   1.826105239244313E-012
   GDM::BFGS:   lowest Hinv e-value    0.129914068746160     
   GDM::BFGS:   highest Hinv e-value    9.27409441051921     
   GDM::      : max scaling in EWCs is          2.82842712474619     
   GDM::      : max rotation in step is        0.242879118054275     
   GDM::        grad.step =  -0.336613177521513     
   ------- Leaving GDM -- hopefully with a step in the right direction! --------
 
   16    -669.2123360580      2.65E-01  Gap = -163.29 eV  Descent step
 
   ------------------- Entering Geometric Direct Minimization ------------------
   GDM::trust : actual energy change is       -0.146226357565638     
   GDM::trust : predicted energy change was   -0.207147547768822     
   GDM::trust : updated trust radius is        0.330000000000000     
   GDM:         diagonal hessian shift is      0.000000000000000E+000
   GDM::PreWSS: input subspace size is                 16
   GDM::PreWSS: working subspace size set to           16
   GDM::PrEWSS: # of linearly dependent vectors =            0
   GDM::PrEWSS: Max dev from orthonormality =   1.418833800448382E-012
   GDM::BFGS:   lowest Hinv e-value    0.135035851673822     
   GDM::BFGS:   highest Hinv e-value    9.45628091420685     
   GDM::      : max scaling in EWCs is          2.82842712474619     
   GDM::      : max rotation in step is        0.275308389548879     
   GDM::        grad.step =  -0.383703714965202     
   ------- Leaving GDM -- hopefully with a step in the right direction! --------
 
   17    -669.3585624156      3.49E-01  Gap = -163.29 eV  Descent step
 
   ------------------- Entering Geometric Direct Minimization ------------------
   GDM::trust : actual energy change is       -0.124656816726770     
   GDM::trust : predicted energy change was   -0.374601513893345     
   GDM::trust : updated trust radius is        0.330000000000000     
   GDM:         diagonal hessian shift is      0.000000000000000E+000
   GDM::PreWSS: input subspace size is                 17
   GDM::PreWSS: working subspace size set to           17
   GDM::PrEWSS: # of linearly dependent vectors =            0
   GDM::PrEWSS: Max dev from orthonormality =   1.473569530285879E-012
   GDM::BFGS:   lowest Hinv e-value    9.360606007414250E-002
   GDM::BFGS:   highest Hinv e-value    8.89259245871863     
   GDM::      : max scaling in EWCs is          2.82842712474619     
   GDM::      : max rotation in step is        0.368645612985116     
   GDM::        grad.step =  -0.422882283306771     
   ------- Leaving GDM -- hopefully with a step in the right direction! --------
 
   18    -669.4832192323      5.06E-01  Gap = -163.29 eV  Descent step
 
   ------------------- Entering Geometric Direct Minimization ------------------
   GDM::trust : actual energy change is       -1.957188812139066E-002
   GDM::trust : predicted energy change was   -0.501585162951307     
   GDM::trust : updated trust radius is        0.330000000000000     
   GDM:         diagonal hessian shift is      0.000000000000000E+000
   GDM::PreWSS: input subspace size is                 18
   GDM::PreWSS: working subspace size set to           18
   GDM::PrEWSS: # of linearly dependent vectors =            0
   GDM::PrEWSS: Max dev from orthonormality =   1.956778489242694E-012
   GDM::BFGS:   lowest Hinv e-value    0.101093258775748     
   GDM::BFGS:   highest Hinv e-value    10.1875531902365     
   GDM::      : max scaling in EWCs is          2.82842712474619     
   GDM::      : max rotation in step is        0.324311071391574     
   GDM::        grad.step =  -0.539824100448076     
   ------- Leaving GDM -- hopefully with a step in the right direction! --------
 
   19    -669.5027911204      6.16E-01  Gap = -163.29 eV  Descent step
 
   ------------------- Entering Geometric Direct Minimization ------------------
   GDM::trust : actual energy change is       -9.812773249234397E-002
   GDM::trust : predicted energy change was   -0.552070159825162     
   GDM::trust : updated trust radius is        0.330000000000000     
   GDM:         diagonal hessian shift is      0.000000000000000E+000
   GDM::PreWSS: input subspace size is                 19
   GDM::PreWSS: working subspace size set to           18
   GDM::PrEWSS: # of linearly dependent vectors =            0
   GDM::PrEWSS: Max dev from orthonormality =   8.572084014835113E-013
   GDM::BFGS:   lowest Hinv e-value    8.844801188732752E-002
   GDM::BFGS:   highest Hinv e-value    9.04477559431688     
   GDM::      : max scaling in EWCs is          2.82842712474619     
   GDM::      : max rotation in step is        0.204343317796492     
   GDM::        grad.step =  -0.422973547988392     
   ------- Leaving GDM -- hopefully with a step in the right direction! --------
 
   20    -669.6009188529      3.66E-01  Gap = -163.29 eV  Descent step
 
   ------------------- Entering Geometric Direct Minimization ------------------
   GDM::trust : actual energy change is        1.046451757122213E-002
   GDM::trust : predicted energy change was   -0.547287901662453     
   GDM::trust : updated trust radius is        0.108900000000000     
   GDM::search:  On step            1 .  The current bracket is:
       left   : x =  0.0000E+00, e =      -669.6009188529, g = -0.6335E+00
       current: x =  0.6677E+00, e =      -669.5904543353, g =  0.7164E+00
       right  : x =  0.1000E+04, e =      1000.0000000000, g =  0.1000E+04
       next   : x =  0.3258E+00
   GDM::      : max rotation in step is        9.970492326799814E-002
   ------- Leaving GDM -- hopefully with a step in the right direction! --------
 
   21    -669.5904543353      5.38E-02  Gap = -163.29 eV  Line search: overstep
 
   ------------------- Entering Geometric Direct Minimization ------------------
   GDM::trust : actual energy change is       -0.109375136742187     
   GDM::trust : predicted energy change was   -0.547287901662453     
   GDM::trust : updated trust radius is        0.108900000000000     
   GDM:         diagonal hessian shift is      0.000000000000000E+000
   GDM::PreWSS: input subspace size is                 19
   GDM::PreWSS: working subspace size set to           18
   GDM::PrEWSS: # of linearly dependent vectors =            0
   GDM::PrEWSS: Max dev from orthonormality =   2.114343422565668E-012
   GDM::BFGS:   lowest Hinv e-value    0.111718234580243     
   GDM::BFGS:   highest Hinv e-value    7.83842665966259     
   GDM::      : max scaling in EWCs is          2.82842712474619     
   GDM::      : max rotation in step is        0.149182105252163     
   GDM::        grad.step =  -8.202333639334947E-002
   ------- Leaving GDM -- hopefully with a step in the right direction! --------
 
   22    -669.7102939897      4.08E-01  Gap = -163.29 eV  Descent step
 
   ------------------- Entering Geometric Direct Minimization ------------------
   GDM::trust : actual energy change is       -7.713336296546913E-002
   GDM::trust : predicted energy change was   -1.769834381334603E-002
   GDM::trust : updated trust radius is        0.330000000000000     
   GDM:         diagonal hessian shift is      0.000000000000000E+000
   GDM::PreWSS: input subspace size is                 19
   GDM::PreWSS: working subspace size set to           18
   GDM::PrEWSS: # of linearly dependent vectors =            0
   GDM::PrEWSS: Max dev from orthonormality =   2.893994072161732E-012
   GDM::BFGS:   lowest Hinv e-value    6.669745051851120E-002
   GDM::BFGS:   highest Hinv e-value    15.3913192374897     
   GDM::      : max scaling in EWCs is          2.82842712474619     
   GDM::      : max rotation in step is        0.581718430221566     
   GDM::        grad.step =  -0.265376570341554     
   ------- Leaving GDM -- hopefully with a step in the right direction! --------
 
   23    -669.7874273526      5.01E-01  Gap = -163.29 eV  Descent step
 
   ------------------- Entering Geometric Direct Minimization ------------------
   GDM::trust : actual energy change is       -0.213801113570980     
   GDM::trust : predicted energy change was   -0.205932260765189     
   GDM::trust : updated trust radius is        0.330000000000000     
   GDM:         diagonal hessian shift is      0.000000000000000E+000
   GDM::PreWSS: input subspace size is                 19
   GDM::PreWSS: working subspace size set to           18
   GDM::PrEWSS: # of linearly dependent vectors =            0
   GDM::PrEWSS: Max dev from orthonormality =   1.645770325575668E-012
   GDM::BFGS:   lowest Hinv e-value    8.501937970526964E-002
   GDM::BFGS:   highest Hinv e-value    7.88392589873955     
   GDM::      : max scaling in EWCs is          2.82842712474619     
   GDM::      : max rotation in step is       -0.386767011625873     
   GDM::        grad.step =  -0.275122782978458     
   ------- Leaving GDM -- hopefully with a step in the right direction! --------
 
   24    -670.0012284662      3.45E-01  Gap = -163.29 eV  Descent step
 
   ------------------- Entering Geometric Direct Minimization ------------------
   GDM::trust : actual energy change is        0.173153486018123     
   GDM::trust : predicted energy change was   -0.512209858399111     
   GDM::trust : updated trust radius is        0.108900000000000     
   GDM::search:  On step            1 .  The current bracket is:
       left   : x =  0.0000E+00, e =      -670.0012284662, g = -0.3887E+00
       current: x =  0.7078E+00, e =      -669.8280749802, g =  0.8146E+00
       right  : x =  0.1000E+04, e =      1000.0000000000, g =  0.1000E+04
       next   : x =  0.2172E+00
   GDM::      : max rotation in step is       -0.118686203087391     
   ------- Leaving GDM -- hopefully with a step in the right direction! --------
 
   25    -669.8280749802      7.31E-02  Gap = -163.29 eV  Line search: overstep
 
   ------------------- Entering Geometric Direct Minimization ------------------
   GDM::trust : actual energy change is       -4.313824714813563E-002
   GDM::trust : predicted energy change was   -0.512209858399111     
   GDM::trust : updated trust radius is        0.108900000000000     
   GDM:         diagonal hessian shift is      0.000000000000000E+000
   GDM::PreWSS: input subspace size is                 19
   GDM::PreWSS: working subspace size set to           18
   GDM::PrEWSS: # of linearly dependent vectors =            0
   GDM::PrEWSS: Max dev from orthonormality =   1.496049811811062E-012
   GDM::BFGS:   lowest Hinv e-value    0.101061318971438     
   GDM::BFGS:   highest Hinv e-value    7.76925083895401     
   GDM::      : max scaling in EWCs is          2.82842712474619     
   GDM::      : max rotation in step is        8.364285892551268E-002
   GDM::        grad.step =  -5.763698466527663E-002
   ------- Leaving GDM -- hopefully with a step in the right direction! --------
 
   26    -670.0443667133      2.13E-01  Gap = -163.29 eV  Descent step
 
   ------------------- Entering Geometric Direct Minimization ------------------
   GDM::trust : actual energy change is       -3.812715103856590E-002
   GDM::trust : predicted energy change was   -3.040342141730475E-002
   GDM::trust : updated trust radius is        0.330000000000000     
   GDM:         diagonal hessian shift is      0.000000000000000E+000
   GDM::PreWSS: input subspace size is                 19
   GDM::PreWSS: working subspace size set to           18
   GDM::PrEWSS: # of linearly dependent vectors =            0
   GDM::PrEWSS: Max dev from orthonormality =   5.309225281635577E-013
   GDM::BFGS:   lowest Hinv e-value    8.914866953062378E-002
   GDM::BFGS:   highest Hinv e-value    7.32275604633971     
   GDM::      : max scaling in EWCs is          2.82842712474619     
   GDM::      : max rotation in step is        0.299139182999673     
   GDM::        grad.step =  -0.158901845712611     
   ------- Leaving GDM -- hopefully with a step in the right direction! --------
 
   27    -670.0824938644      1.58E-01  Gap = -163.29 eV  Descent step
 
   ------------------- Entering Geometric Direct Minimization ------------------
   GDM::trust : actual energy change is        7.962359036946509E-002
   GDM::trust : predicted energy change was   -0.355208112059970     
   GDM::trust : updated trust radius is        0.108900000000000     
   GDM::search:  On step            1 .  The current bracket is:
       left   : x =  0.0000E+00, e =      -670.0824938644, g = -0.2534E+00
       current: x =  0.6271E+00, e =      -670.0028702740, g =  0.4550E+00
       right  : x =  0.1000E+04, e =      1000.0000000000, g =  0.1000E+04
       next   : x =  0.2089E+00
   GDM::      : max rotation in step is        9.964087915398311E-002
   ------- Leaving GDM -- hopefully with a step in the right direction! --------
 
   28    -670.0028702740      4.79E-02  Gap = -163.29 eV  Line search: overstep
 
   ------------------- Entering Geometric Direct Minimization ------------------
   GDM::trust : actual energy change is       -2.539953049665655E-002
   GDM::trust : predicted energy change was   -0.355208112059970     
   GDM::trust : updated trust radius is        0.108900000000000     
   GDM:         diagonal hessian shift is      0.000000000000000E+000
   GDM::PreWSS: input subspace size is                 19
   GDM::PreWSS: working subspace size set to           18
   GDM::PrEWSS: # of linearly dependent vectors =            0
   GDM::PrEWSS: Max dev from orthonormality =   6.083085424268830E-013
   GDM::BFGS:   lowest Hinv e-value    9.681455812173098E-002
   GDM::BFGS:   highest Hinv e-value    7.49348821566828     
   GDM::      : max scaling in EWCs is          2.82842712474619     
   GDM::      : max rotation in step is       -0.125665897026613     
   GDM::        grad.step =  -5.574379739628241E-002
   ------- Leaving GDM -- hopefully with a step in the right direction! --------
 
   29    -670.1078933949      2.12E-01  Gap = -163.29 eV  Descent step
 
   ------------------- Entering Geometric Direct Minimization ------------------
   GDM::trust : actual energy change is       -1.741820665949945E-002
   GDM::trust : predicted energy change was   -5.032122587259489E-002
   GDM::trust : updated trust radius is        0.330000000000000     
   GDM:         diagonal hessian shift is      0.000000000000000E+000
   GDM::PreWSS: input subspace size is                 19
   GDM::PreWSS: working subspace size set to           18
   GDM::PrEWSS: # of linearly dependent vectors =            0
   GDM::PrEWSS: Max dev from orthonormality =   1.275013081225573E-012
   GDM::BFGS:   lowest Hinv e-value    9.382104208870121E-002
   GDM::BFGS:   highest Hinv e-value    7.14840140031353     
   GDM::      : max scaling in EWCs is          2.82842712474619     
   GDM::      : max rotation in step is        0.442400816392773     
   GDM::        grad.step =  -0.174151325133687     
   ------- Leaving GDM -- hopefully with a step in the right direction! --------
 
   30    -670.1253116015      2.71E-01  Gap = -163.29 eV  Descent step
 
   ------------------- Entering Geometric Direct Minimization ------------------
   GDM::trust : actual energy change is        0.194320817924790     
   GDM::trust : predicted energy change was   -0.517060310865783     
   GDM::trust : updated trust radius is        0.108900000000000     
   GDM::search:  On step            1 .  The current bracket is:
       left   : x =  0.0000E+00, e =      -670.1253116015, g = -0.2472E+00
       current: x =  0.7045E+00, e =      -669.9309907836, g =  0.6558E+00
       right  : x =  0.1000E+04, e =      1000.0000000000, g =  0.1000E+04
       next   : x =  0.1665E+00
   GDM::      : max rotation in step is        0.104546150728685     
   ------- Leaving GDM -- hopefully with a step in the right direction! --------
 
   31    -669.9309907836      5.26E-02  Gap = -163.29 eV  Line search: overstep
 
   ------------------- Entering Geometric Direct Minimization ------------------
   GDM::trust : actual energy change is       -1.862943630794689E-002
   GDM::trust : predicted energy change was   -0.517060310865783     
   GDM::trust : updated trust radius is        0.108900000000000     
   GDM:         diagonal hessian shift is      0.000000000000000E+000
   GDM::PreWSS: input subspace size is                 19
   GDM::PreWSS: working subspace size set to           18
   GDM::PrEWSS: # of linearly dependent vectors =            0
   GDM::PrEWSS: Max dev from orthonormality =   9.959255642399967E-013
   GDM::BFGS:   lowest Hinv e-value    0.107611792827220     
   GDM::BFGS:   highest Hinv e-value    7.23229100473591     
   GDM::      : max scaling in EWCs is          2.82842712474619     
   GDM::      : max rotation in step is       -9.443169659644428E-002
   GDM::        grad.step =  -3.537702905138168E-002
   ------- Leaving GDM -- hopefully with a step in the right direction! --------
 
   32    -670.1439410378      1.11E-01  Gap = -163.29 eV  Descent step
 
   ------------------- Entering Geometric Direct Minimization ------------------
   GDM::trust : actual energy change is       -1.346591737524250E-002
   GDM::trust : predicted energy change was   -3.378582717564468E-002
   GDM::trust : updated trust radius is        0.330000000000000     
   GDM:         diagonal hessian shift is      0.000000000000000E+000
   GDM::PreWSS: input subspace size is                 19
   GDM::PreWSS: working subspace size set to           18
   GDM::PrEWSS: # of linearly dependent vectors =            0
   GDM::PrEWSS: Max dev from orthonormality =   8.709560850306275E-013
   GDM::BFGS:   lowest Hinv e-value    9.762350606251535E-002
   GDM::BFGS:   highest Hinv e-value    6.88816607157983     
   GDM::      : max scaling in EWCs is          2.82842712474619     
   GDM::      : max rotation in step is        0.397323745894249     
   GDM::        grad.step =  -0.149555457982377     
   ------- Leaving GDM -- hopefully with a step in the right direction! --------
 
   33    -670.1574069552      2.24E-01  Gap = -163.29 eV  Descent step
 
   ------------------- Entering Geometric Direct Minimization ------------------
   GDM::trust : actual energy change is        0.222470575326383     
   GDM::trust : predicted energy change was   -0.539083606943053     
   GDM::trust : updated trust radius is        0.108900000000000     
   GDM::search:  On step            1 .  The current bracket is:
       left   : x =  0.0000E+00, e =      -670.1574069552, g = -0.2134E+00
       current: x =  0.7007E+00, e =      -669.9349363799, g =  0.7060E+00
       right  : x =  0.1000E+04, e =      1000.0000000000, g =  0.1000E+04
       next   : x =  0.1408E+00
   GDM::      : max rotation in step is        7.986260296893145E-002
   ------- Leaving GDM -- hopefully with a step in the right direction! --------
 
   34    -669.9349363799      6.86E-02  Gap = -163.29 eV  Line search: overstep
 
   ------------------- Entering Geometric Direct Minimization ------------------
   GDM::trust : actual energy change is       -1.365659923840212E-002
   GDM::trust : predicted energy change was   -0.539083606943053     
   GDM::trust : updated trust radius is        0.108900000000000     
   GDM:         diagonal hessian shift is      0.000000000000000E+000
   GDM::PreWSS: input subspace size is                 19
   GDM::PreWSS: working subspace size set to           18
   GDM::PrEWSS: # of linearly dependent vectors =            0
   GDM::PrEWSS: Max dev from orthonormality =   1.948952284280825E-012
   GDM::BFGS:   lowest Hinv e-value    0.117930131241878     
   GDM::BFGS:   highest Hinv e-value    7.26668469004615     
   GDM::      : max scaling in EWCs is          2.82842712474619     
   GDM::      : max rotation in step is       -8.673585902438628E-002
   GDM::        grad.step =  -2.735335793947856E-002
   ------- Leaving GDM -- hopefully with a step in the right direction! --------
 
   35    -670.1710635545      9.68E-02  Gap = -163.29 eV  Descent step
 
   ------------------- Entering Geometric Direct Minimization ------------------
   GDM::trust : actual energy change is       -1.082937989008315E-002
   GDM::trust : predicted energy change was   -3.039228728413734E-002
   GDM::trust : updated trust radius is        0.330000000000000     
   GDM:         diagonal hessian shift is      0.000000000000000E+000
   GDM::PreWSS: input subspace size is                 19
   GDM::PreWSS: working subspace size set to           18
   GDM::PrEWSS: # of linearly dependent vectors =            0
   GDM::PrEWSS: Max dev from orthonormality =   5.701397687296605E-012
   GDM::BFGS:   lowest Hinv e-value    0.101717522147843     
   GDM::BFGS:   highest Hinv e-value    6.06200902937737     
   GDM::      : max scaling in EWCs is          2.82842712474619     
   GDM::      : max rotation in step is        0.304216889709119     
   GDM::        grad.step =  -0.136092005954204     
   ------- Leaving GDM -- hopefully with a step in the right direction! --------
 
   36    -670.1818929343      1.63E-01  Gap = -163.29 eV  Descent step
 
   ------------------- Entering Geometric Direct Minimization ------------------
   GDM::trust : actual energy change is        0.184866048201570     
   GDM::trust : predicted energy change was   -0.539443850145183     
   GDM::trust : updated trust radius is        0.108900000000000     
   GDM::search:  On step            1 .  The current bracket is:
       left   : x =  0.0000E+00, e =      -670.1818929343, g = -0.1971E+00
       current: x =  0.6903E+00, e =      -669.9970268861, g =  0.6180E+00
       right  : x =  0.1000E+04, e =      1000.0000000000, g =  0.1000E+04
       next   : x =  0.1464E+00
   GDM::      : max rotation in step is        6.449672508540483E-002
   ------- Leaving GDM -- hopefully with a step in the right direction! --------
 
   37    -669.9970268861      8.36E-02  Gap = -163.29 eV  Line search: overstep
 
   ------------------- Entering Geometric Direct Minimization ------------------
   GDM::trust : actual energy change is       -1.317736592102392E-002
   GDM::trust : predicted energy change was   -0.539443850145183     
   GDM::trust : updated trust radius is        0.108900000000000     
   GDM:         diagonal hessian shift is      0.000000000000000E+000
   GDM::PreWSS: input subspace size is                 19
   GDM::PreWSS: working subspace size set to           18
   GDM::PrEWSS: # of linearly dependent vectors =            0
   GDM::PrEWSS: Max dev from orthonormality =   1.904976176803075E-011
   GDM::BFGS:   lowest Hinv e-value    0.125164603781766     
   GDM::BFGS:   highest Hinv e-value    6.19382029275836     
   GDM::      : max scaling in EWCs is          2.82842712474619     
   GDM::      : max rotation in step is        0.173061660002533     
   GDM::        grad.step =  -2.938371140636600E-002
   ------- Leaving GDM -- hopefully with a step in the right direction! --------
 
   38    -670.1950703003      1.87E-01  Gap = -163.29 eV  Descent step
 
   ------------------- Entering Geometric Direct Minimization ------------------
   GDM::trust : actual energy change is       -1.662976637737756E-002
   GDM::trust : predicted energy change was   -3.187708374680481E-002
   GDM::trust : updated trust radius is        0.330000000000000     
   GDM:         diagonal hessian shift is      0.000000000000000E+000
   GDM::PreWSS: input subspace size is                 19
   GDM::PreWSS: working subspace size set to           18
   GDM::PrEWSS: # of linearly dependent vectors =            0
   GDM::PrEWSS: Max dev from orthonormality =   5.490746746161790E-012
   GDM::BFGS:   lowest Hinv e-value    9.523056200407715E-002
   GDM::BFGS:   highest Hinv e-value    6.25032251301179     
   GDM::      : max scaling in EWCs is          2.82842712474619     
   GDM::      : max rotation in step is        0.492466620706664     
   GDM::        grad.step =  -0.141044304848976     
   ------- Leaving GDM -- hopefully with a step in the right direction! --------
 
   39    -670.2117000666      2.26E-01  Gap = -163.29 eV  Descent step
 
   ------------------- Entering Geometric Direct Minimization ------------------
   GDM::trust : actual energy change is        2.186243079881933E-002
   GDM::trust : predicted energy change was   -0.479859116281816     
   GDM::trust : updated trust radius is        0.108900000000000     
   GDM::search:  On step            1 .  The current bracket is:
       left   : x =  0.0000E+00, e =      -670.2117000666, g = -0.1903E+00
       current: x =  0.7411E+00, e =      -670.1898376358, g =  0.2132E+00
       right  : x =  0.1000E+04, e =      1000.0000000000, g =  0.1000E+04
       next   : x =  0.3208E+00
   GDM::      : max rotation in step is        0.213188275802995     
   ------- Leaving GDM -- hopefully with a step in the right direction! --------
 
   40    -670.1898376358      8.61E-02  Gap = -163.29 eV  Line search: overstep
 
   ------------------- Entering Geometric Direct Minimization ------------------
   GDM::trust : actual energy change is       -2.881288544006111E-002
   GDM::trust : predicted energy change was   -0.479859116281816     
   GDM::trust : updated trust radius is        0.108900000000000     
   GDM:         diagonal hessian shift is      0.000000000000000E+000
   GDM::PreWSS: input subspace size is                 19
   GDM::PreWSS: working subspace size set to           18
   GDM::PrEWSS: # of linearly dependent vectors =            0
   GDM::PrEWSS: Max dev from orthonormality =   5.707892491990663E-012
   GDM::BFGS:   lowest Hinv e-value    0.115476639167543     
   GDM::BFGS:   highest Hinv e-value    7.62764332331016     
   GDM::      : max scaling in EWCs is          2.82842712474619     
   GDM::      : max rotation in step is        0.187117463956848     
   GDM::        grad.step =  -6.360537149056680E-002
   ------- Leaving GDM -- hopefully with a step in the right direction! --------
 
   41    -670.2405129521      3.55E-01  Gap = -163.29 eV  Descent step
 
   ------------------- Entering Geometric Direct Minimization ------------------
   GDM::trust : actual energy change is       -4.030028510078409E-002
   GDM::trust : predicted energy change was   -4.619305890101913E-002
   GDM::trust : updated trust radius is        0.330000000000000     
   GDM:         diagonal hessian shift is      0.000000000000000E+000
   GDM::PreWSS: input subspace size is                 19
   GDM::PreWSS: working subspace size set to           18
   GDM::PrEWSS: # of linearly dependent vectors =            0
   GDM::PrEWSS: Max dev from orthonormality =   9.525488037231966E-012
   GDM::BFGS:   lowest Hinv e-value    0.119003421080786     
   GDM::BFGS:   highest Hinv e-value    8.45684731007222     
   GDM::      : max scaling in EWCs is          2.82842712474619     
   GDM::      : max rotation in step is        0.671992797434500     
   GDM::        grad.step =  -0.129092513809117     
   ------- Leaving GDM -- hopefully with a step in the right direction! --------
 
   42    -670.2808132372      2.82E-01  Gap = -163.29 eV  Descent step
 
   ------------------- Entering Geometric Direct Minimization ------------------
   GDM::trust : actual energy change is       -3.813754096881894E-002
   GDM::trust : predicted energy change was   -0.172005274639207     
   GDM::trust : updated trust radius is        0.330000000000000     
   GDM:         diagonal hessian shift is      0.000000000000000E+000
   GDM::PreWSS: input subspace size is                 19
   GDM::PreWSS: working subspace size set to           18
   GDM::PrEWSS: # of linearly dependent vectors =            0
   GDM::PrEWSS: Max dev from orthonormality =   4.529886882265188E-012
   GDM::BFGS:   lowest Hinv e-value    0.198497186640689     
   GDM::BFGS:   highest Hinv e-value    7.72845077229026     
   GDM::      : max scaling in EWCs is          2.82842712474619     
   GDM::      : max rotation in step is       -0.522744807365600     
   GDM::        grad.step =  -0.233131461594326     
   ------- Leaving GDM -- hopefully with a step in the right direction! --------
 
   43    -670.3189507781      3.96E-01  Gap = -163.29 eV  Descent step
 
   ------------------- Entering Geometric Direct Minimization ------------------
   GDM::trust : actual energy change is        0.121199773495960     
   GDM::trust : predicted energy change was   -0.355352162557812     
   GDM::trust : updated trust radius is        0.108900000000000     
   GDM::search:  On step            1 .  The current bracket is:
       left   : x =  0.0000E+00, e =      -670.3189507781, g = -0.3467E+00
       current: x =  0.6724E+00, e =      -670.1977510047, g =  0.5908E+00
       right  : x =  0.1000E+04, e =      1000.0000000000, g =  0.1000E+04
       next   : x =  0.2212E+00
   GDM::      : max rotation in step is       -0.171969401668659     
   ------- Leaving GDM -- hopefully with a step in the right direction! --------
 
   44    -670.1977510047      8.84E-02  Gap = -163.29 eV  Line search: overstep
 
   ------------------- Entering Geometric Direct Minimization ------------------
   GDM::trust : actual energy change is       -3.687350777113352E-002
   GDM::trust : predicted energy change was   -0.355352162557812     
   GDM::trust : updated trust radius is        0.108900000000000     
   GDM:         diagonal hessian shift is      0.000000000000000E+000
   GDM::PreWSS: input subspace size is                 19
   GDM::PreWSS: working subspace size set to           18
   GDM::PrEWSS: # of linearly dependent vectors =            0
   GDM::PrEWSS: Max dev from orthonormality =   4.780540546756029E-012
   GDM::BFGS:   lowest Hinv e-value    0.158535881158441     
   GDM::BFGS:   highest Hinv e-value    6.46240308882456     
   GDM::      : max scaling in EWCs is          2.82842712474619     
   GDM::      : max rotation in step is        8.435329475771382E-002
   GDM::        grad.step =  -1.215331585464079E-002
   ------- Leaving GDM -- hopefully with a step in the right direction! --------
 
   45    -670.3558242859      3.56E-02  Gap = -163.29 eV  Descent step
 
   ------------------- Entering Geometric Direct Minimization ------------------
   GDM::trust : actual energy change is        2.886847478634991E-003
   GDM::trust : predicted energy change was   -2.143021482332196E-002
   GDM::trust : updated trust radius is        0.108900000000000     
   GDM::search:  On step            1 .  The current bracket is:
       left   : x =  0.0000E+00, e =      -670.3558242859, g = -0.8166E-01
       current: x =  0.1488E+00, e =      -670.3529374384, g =  0.1187E+00
       right  : x =  0.1000E+04, e =      1000.0000000000, g =  0.1000E+04
       next   : x =  0.6013E-01
   GDM::      : max rotation in step is        3.408115363687432E-002
   ------- Leaving GDM -- hopefully with a step in the right direction! --------
 
   46    -670.3529374384      1.08E-02  Gap = -163.29 eV  Line search: overstep
 
   ------------------- Entering Geometric Direct Minimization ------------------
   GDM::trust : actual energy change is       -2.433504154964794E-003
   GDM::trust : predicted energy change was   -2.143021482332196E-002
   GDM::trust : updated trust radius is        0.108900000000000     
   GDM:         diagonal hessian shift is      0.000000000000000E+000
   GDM::PreWSS: input subspace size is                 19
   GDM::PreWSS: working subspace size set to           18
   GDM::PrEWSS: # of linearly dependent vectors =            0
   GDM::PrEWSS: Max dev from orthonormality =   1.020390716366393E-011
   GDM::BFGS:   lowest Hinv e-value    0.165832630380567     
   GDM::BFGS:   highest Hinv e-value    6.47451429095065     
   GDM::      : max scaling in EWCs is          2.82842712474619     
   GDM::      : max rotation in step is       -5.314001391113809E-002
   GDM::        grad.step =  -5.650465555604635E-003
   ------- Leaving GDM -- hopefully with a step in the right direction! --------
 
   47    -670.3582577901      2.78E-02  Gap = -163.29 eV  Normal BFGS step
 
   ------------------- Entering Geometric Direct Minimization ------------------
   GDM::trust : actual energy change is       -1.848953302214795E-003
   GDM::trust : predicted energy change was   -8.475698333406952E-003
   GDM::trust : updated trust radius is        0.330000000000000     
   GDM:         diagonal hessian shift is      0.000000000000000E+000
   GDM::PreWSS: input subspace size is                 19
   GDM::PreWSS: working subspace size set to           18
   GDM::PrEWSS: # of linearly dependent vectors =            0
   GDM::PrEWSS: Max dev from orthonormality =   8.504967563549570E-012
   GDM::BFGS:   lowest Hinv e-value    0.190348325844413     
   GDM::BFGS:   highest Hinv e-value    6.16180920907914     
   GDM::      : max scaling in EWCs is          2.66393803017901     
   GDM::      : max rotation in step is       -4.705853673713788E-002
   GDM::        grad.step =  -3.790840796052982E-003
   ------- Leaving GDM -- hopefully with a step in the right direction! --------
 
   48    -670.3601067434      2.25E-02  Gap = -163.29 eV  Normal BFGS step
 
   ------------------- Entering Geometric Direct Minimization ------------------
   GDM::trust : actual energy change is       -2.311265191110579E-004
   GDM::trust : predicted energy change was   -5.686261194079477E-003
   GDM::trust : updated trust radius is        0.330000000000000     
   GDM:         diagonal hessian shift is      0.000000000000000E+000
   GDM::PreWSS: input subspace size is                 19
   GDM::PreWSS: working subspace size set to           18
   GDM::PrEWSS: # of linearly dependent vectors =            0
   GDM::PrEWSS: Max dev from orthonormality =   6.983923855896634E-012
   GDM::BFGS:   lowest Hinv e-value    0.188391727989917     
   GDM::BFGS:   highest Hinv e-value    4.22273499862701     
   GDM::      : max scaling in EWCs is          2.68949177266303     
   GDM::      : max rotation in step is        2.730173572839396E-002
   GDM::        grad.step =  -3.345940915910750E-003
   ------- Leaving GDM -- hopefully with a step in the right direction! --------
 
   49    -670.3603378699      3.39E-02  Gap = -163.29 eV  Normal BFGS step
 
   ------------------- Entering Geometric Direct Minimization ------------------
   GDM::trust : actual energy change is       -1.211918656281341E-003
   GDM::trust : predicted energy change was   -5.018911373866126E-003
   GDM::trust : updated trust radius is        0.330000000000000     
   GDM:         diagonal hessian shift is      0.000000000000000E+000
   GDM::PreWSS: input subspace size is                 19
   GDM::PreWSS: working subspace size set to           18
   GDM::PrEWSS: # of linearly dependent vectors =            0
   GDM::PrEWSS: Max dev from orthonormality =   4.582415176479504E-012
   GDM::BFGS:   lowest Hinv e-value    0.195367732588790     
   GDM::BFGS:   highest Hinv e-value    4.39428820080664     
   GDM::      : max scaling in EWCs is          2.67309893446460     
   GDM::      : max rotation in step is        2.500673194913564E-002
   GDM::        grad.step =  -9.045335009225523E-004
   ------- Leaving GDM -- hopefully with a step in the right direction! --------
 
   50    -670.3615497886      1.67E-02  Gap = -163.29 eV  Normal BFGS step
 
   ------------------- Entering Geometric Direct Minimization ------------------
   GDM::trust : actual energy change is       -3.620049064920750E-004
   GDM::trust : predicted energy change was   -1.356800251383828E-003
   GDM::trust : updated trust radius is        0.330000000000000     
   GDM:         diagonal hessian shift is      0.000000000000000E+000
   GDM::PreWSS: input subspace size is                 19
   GDM::PreWSS: working subspace size set to           18
   GDM::PrEWSS: # of linearly dependent vectors =            0
   GDM::PrEWSS: Max dev from orthonormality =   1.679105118834734E-011
   GDM::BFGS:   lowest Hinv e-value    0.179609095951007     
   GDM::BFGS:   highest Hinv e-value    3.68330003471716     
   GDM::      : max scaling in EWCs is          2.65783672487439     
   GDM::      : max rotation in step is        4.369195096581899E-002
   GDM::        grad.step =  -5.496721163889198E-004
   ------- Leaving GDM -- hopefully with a step in the right direction! --------
 
   51    -670.3619117935      1.19E-02  Gap = -163.29 eV  Normal BFGS step
 
   ------------------- Entering Geometric Direct Minimization ------------------
   GDM::trust : actual energy change is       -2.421268994794445E-004
   GDM::trust : predicted energy change was   -8.245081745833799E-004
   GDM::trust : updated trust radius is        0.330000000000000     
   GDM:         diagonal hessian shift is      0.000000000000000E+000
   GDM::PreWSS: input subspace size is                 19
   GDM::PreWSS: working subspace size set to           18
   GDM::PrEWSS: # of linearly dependent vectors =            0
   GDM::PrEWSS: Max dev from orthonormality =   6.958349521579699E-011
   GDM::BFGS:   lowest Hinv e-value    0.186396661609753     
   GDM::BFGS:   highest Hinv e-value    5.54840931247718     
   GDM::      : max scaling in EWCs is          2.64470187001570     
   GDM::      : max rotation in step is        0.118235651452425     
   GDM::        grad.step =  -1.101027227817642E-003
   ------- Leaving GDM -- hopefully with a step in the right direction! --------
 
   52    -670.3621539204      1.33E-02  Gap = -163.29 eV  Normal BFGS step
 
   ------------------- Entering Geometric Direct Minimization ------------------
   GDM::trust : actual energy change is       -8.318097850406048E-004
   GDM::trust : predicted energy change was   -1.651540841726464E-003
   GDM::trust : updated trust radius is        0.330000000000000     
   GDM:         diagonal hessian shift is      0.000000000000000E+000
   GDM::PreWSS: input subspace size is                 19
   GDM::PreWSS: working subspace size set to           18
   GDM::PrEWSS: # of linearly dependent vectors =            0
   GDM::PrEWSS: Max dev from orthonormality =   1.174545183335596E-011
   GDM::BFGS:   lowest Hinv e-value    0.141576237522585     
   GDM::BFGS:   highest Hinv e-value    30.5434247113311     
   GDM::trust : dogleg step length is          0.330000000000000     
   GDM::      : max scaling in EWCs is          2.59955436486002     
   GDM::      : max rotation in step is        0.717034624321667     
   GDM::        grad.step =  -5.427665493414699E-003
   ------- Leaving GDM -- hopefully with a step in the right direction! --------
 
   53    -670.3629857301      2.15E-02  Gap = -163.29 eV  Dog-leg BFGS step
 
   ------------------- Entering Geometric Direct Minimization ------------------
   GDM::trust : actual energy change is        4.137998253781916E-003
   GDM::trust : predicted energy change was   -7.887364594986313E-003
   GDM::trust : updated trust radius is        0.108900000000000     
   GDM::search:  On step            1 .  The current bracket is:
       left   : x =  0.0000E+00, e =      -670.3629857301, g = -0.6904E-02
       current: x =  0.7862E+00, e =      -670.3588477319, g =  0.3547E-01
       right  : x =  0.1000E+04, e =      1000.0000000000, g =  0.1000E+04
       next   : x =  0.2230E+00
   GDM::      : max rotation in step is        0.203426766342004     
   ------- Leaving GDM -- hopefully with a step in the right direction! --------
 
   54    -670.3588477319      2.78E-02  Gap = -163.29 eV  Line search: overstep
 
   ------------------- Entering Geometric Direct Minimization ------------------
   GDM::trust : actual energy change is       -1.487618550527259E-003
   GDM::trust : predicted energy change was   -7.887364594986313E-003
   GDM::trust : updated trust radius is        0.108900000000000     
   GDM:         diagonal hessian shift is      0.000000000000000E+000
   GDM::PreWSS: input subspace size is                 19
   GDM::PreWSS: working subspace size set to           18
   GDM::PrEWSS: # of linearly dependent vectors =            0
   GDM::PrEWSS: Max dev from orthonormality =   1.688100353947064E-011
   GDM::BFGS:   lowest Hinv e-value    9.291834574927324E-002
   GDM::BFGS:   highest Hinv e-value    88.9725304181707     
   GDM::trust : dogleg step length is          0.108900000000000     
   GDM::      : max scaling in EWCs is          2.51714818681403     
   GDM::      : max rotation in step is        0.183803890521210     
   GDM::        grad.step =  -6.794595498105754E-003
   ------- Leaving GDM -- hopefully with a step in the right direction! --------
 
   55    -670.3644733487      2.81E-02  Gap = -163.29 eV  Dog-leg BFGS step
 
   ------------------- Entering Geometric Direct Minimization ------------------
   GDM::trust : actual energy change is        2.953054743102257E-004
   GDM::trust : predicted energy change was   -3.194455846907662E-002
   GDM::trust : updated trust radius is        3.593700000000000E-002
   GDM::search:  On step            1 .  The current bracket is:
       left   : x =  0.0000E+00, e =      -670.3644733487, g = -0.2939E-01
       current: x =  0.2312E+00, e =      -670.3641780432, g =  0.3067E-01
       right  : x =  0.1000E+04, e =      1000.0000000000, g =  0.1000E+04
       next   : x =  0.1108E+00
   GDM::      : max rotation in step is        8.807408537359075E-002
   ------- Leaving GDM -- hopefully with a step in the right direction! --------
 
   56    -670.3641780432      1.41E-02  Gap = -163.29 eV  Line search: overstep
 
   ------------------- Entering Geometric Direct Minimization ------------------
   GDM::trust : actual energy change is       -1.602882207635048E-003
   GDM::trust : predicted energy change was   -3.194455846907662E-002
   GDM::trust : updated trust radius is        3.593700000000000E-002
   GDM:         diagonal hessian shift is      0.000000000000000E+000
   GDM::PreWSS: input subspace size is                 19
   GDM::PreWSS: working subspace size set to           18
   GDM::PrEWSS: # of linearly dependent vectors =            0
   GDM::PrEWSS: Max dev from orthonormality =   1.774552380040539E-011
   GDM::BFGS:   lowest Hinv e-value    0.163978019506378     
   GDM::BFGS:   highest Hinv e-value    114.717666941336     
   GDM::      : max scaling in EWCs is          2.58180938731131     
   GDM::      : max rotation in step is        4.545832193146686E-002
   GDM::        grad.step =  -3.013371962214905E-003
   ------- Leaving GDM -- hopefully with a step in the right direction! --------
 
   57    -670.3660762309      4.67E-02  Gap = -163.29 eV  Descent step
 
   ------------------- Entering Geometric Direct Minimization ------------------
   GDM::trust : actual energy change is       -2.924710884144588E-004
   GDM::trust : predicted energy change was   -4.431282533835144E-003
   GDM::trust : updated trust radius is        0.330000000000000     
   GDM:         diagonal hessian shift is      0.000000000000000E+000
   GDM::PreWSS: input subspace size is                 19
   GDM::PreWSS: working subspace size set to           18
   GDM::PrEWSS: # of linearly dependent vectors =            0
   GDM::PrEWSS: Max dev from orthonormality =   1.049554974180689E-011
   GDM::BFGS:   lowest Hinv e-value    0.172904388218356     
   GDM::BFGS:   highest Hinv e-value    124.183151246195     
   GDM::trust : dogleg step length is          0.330000000000000     
   GDM::      : max scaling in EWCs is          2.52124708872410     
   GDM::      : max rotation in step is       -0.454902995921920     
   GDM::        grad.step =  -1.845718151782162E-002
   ------- Leaving GDM -- hopefully with a step in the right direction! --------
 
   58    -670.3663687020      5.06E-02  Gap = -163.29 eV  Dog-leg BFGS step
 
   ------------------- Entering Geometric Direct Minimization ------------------
   GDM::trust : actual energy change is        2.787919818274531E-003
   GDM::trust : predicted energy change was   -4.523528099878603E-002
   GDM::trust : updated trust radius is        0.108900000000000     
   GDM::search:  On step            1 .  The current bracket is:
       left   : x =  0.0000E+00, e =      -670.3663687020, g = -0.2486E-01
       current: x =  0.7426E+00, e =      -670.3635807822, g =  0.2332E-01
       right  : x =  0.1000E+04, e =      1000.0000000000, g =  0.1000E+04
       next   : x =  0.3226E+00
   GDM::      : max rotation in step is       -0.197603839019263     
   ------- Leaving GDM -- hopefully with a step in the right direction! --------
 
   59    -670.3635807822      1.63E-02  Gap = -163.29 eV  Line search: overstep
 
   ------------------- Entering Geometric Direct Minimization ------------------
   GDM::trust : actual energy change is       -3.351610310687647E-003
   GDM::trust : predicted energy change was   -4.523528099878603E-002
   GDM::trust : updated trust radius is        0.108900000000000     
   GDM:         diagonal hessian shift is      0.000000000000000E+000
   GDM::PreWSS: input subspace size is                 19
   GDM::PreWSS: working subspace size set to           18
   GDM::PrEWSS: # of linearly dependent vectors =            0
   GDM::PrEWSS: Max dev from orthonormality =   5.762593527358639E-012
   GDM::BFGS:   lowest Hinv e-value    0.213638282649465     
   GDM::BFGS:   highest Hinv e-value    102.702604266002     
   GDM::trust : dogleg step length is          0.108900000000000     
   GDM::      : max scaling in EWCs is          2.50848167931860     
   GDM::      : max rotation in step is        0.127871297041111     
   GDM::        grad.step =  -1.169710980707329E-002
   ------- Leaving GDM -- hopefully with a step in the right direction! --------
 
   60    -670.3697203123      5.93E-02  Gap = -163.29 eV  Dog-leg BFGS step
 
   ------------------- Entering Geometric Direct Minimization ------------------
   GDM::trust : actual energy change is        1.385514903904550E-002
   GDM::trust : predicted energy change was   -3.592138051080369E-002
   GDM::trust : updated trust radius is        3.593700000000000E-002
   GDM::search:  On step            1 .  The current bracket is:
       left   : x =  0.0000E+00, e =      -670.3697203123, g = -0.6260E-01
       current: x =  0.1869E+00, e =      -670.3558651633, g =  0.2091E+00
       right  : x =  0.1000E+04, e =      1000.0000000000, g =  0.1000E+04
       next   : x =  0.4277E-01
   GDM::      : max rotation in step is        2.926795262349078E-002
   ------- Leaving GDM -- hopefully with a step in the right direction! --------
 
   61    -670.3558651633      3.20E-02  Gap = -163.29 eV  Line search: overstep
 
   ------------------- Entering Geometric Direct Minimization ------------------
   GDM::trust : actual energy change is       -1.340506085398374E-003
   GDM::trust : predicted energy change was   -3.592138051080369E-002
   GDM::trust : updated trust radius is        3.593700000000000E-002
   GDM:         diagonal hessian shift is      0.000000000000000E+000
   GDM::PreWSS: input subspace size is                 19
   GDM::PreWSS: working subspace size set to           18
   GDM::PrEWSS: # of linearly dependent vectors =            0
   GDM::PrEWSS: Max dev from orthonormality =   1.217765211586341E-011
   GDM::BFGS:   lowest Hinv e-value    0.180989898105306     
   GDM::BFGS:   highest Hinv e-value    104.455928479955     
   GDM::      : max scaling in EWCs is          2.41454514354147     
   GDM::      : max rotation in step is        2.427181193392500E-002
   GDM::        grad.step =  -1.908116274602864E-003
   ------- Leaving GDM -- hopefully with a step in the right direction! --------
 
   62    -670.3710608184      1.62E-02  Gap = -163.29 eV  Descent step
 
   ------------------- Entering Geometric Direct Minimization ------------------
   GDM::trust : actual energy change is       -8.290955887559903E-004
   GDM::trust : predicted energy change was   -2.541219137073480E-003
   GDM::trust : updated trust radius is        0.330000000000000     
   GDM:         diagonal hessian shift is      0.000000000000000E+000
   GDM::PreWSS: input subspace size is                 19
   GDM::PreWSS: working subspace size set to           18
   GDM::PrEWSS: # of linearly dependent vectors =            0
   GDM::PrEWSS: Max dev from orthonormality =   1.175057273705704E-011
   GDM::BFGS:   lowest Hinv e-value    0.169770389632713     
   GDM::BFGS:   highest Hinv e-value    107.275735359391     
   GDM::trust : dogleg step length is          0.330000000000000     
   GDM::      : max scaling in EWCs is          2.47940684189864     
   GDM::      : max rotation in step is       -0.553035541559286     
   GDM::        grad.step =  -1.049763221659715E-002
   ------- Leaving GDM -- hopefully with a step in the right direction! --------
 
   63    -670.3718899140      3.76E-02  Gap = -163.29 eV  Dog-leg BFGS step
 
   ------------------- Entering Geometric Direct Minimization ------------------
   GDM::trust : actual energy change is        9.938807638604885E-003
   GDM::trust : predicted energy change was   -2.255091562336715E-002
   GDM::trust : updated trust radius is        0.108900000000000     
   GDM::search:  On step            1 .  The current bracket is:
       left   : x =  0.0000E+00, e =      -670.3718899140, g = -0.1412E-01
       current: x =  0.7437E+00, e =      -670.3619511063, g =  0.4531E-01
       right  : x =  0.1000E+04, e =      1000.0000000000, g =  0.1000E+04
       next   : x =  0.1910E+00
   GDM::      : max rotation in step is       -0.142039507838206     
   ------- Leaving GDM -- hopefully with a step in the right direction! --------
 
   64    -670.3619511063      1.86E-02  Gap = -163.29 eV  Line search: overstep
 
   ------------------- Entering Geometric Direct Minimization ------------------
   GDM::trust : actual energy change is       -1.690150924332556E-003
   GDM::trust : predicted energy change was   -2.255091562336715E-002
   GDM::trust : updated trust radius is        0.108900000000000     
   GDM:         diagonal hessian shift is      0.000000000000000E+000
   GDM::PreWSS: input subspace size is                 19
   GDM::PreWSS: working subspace size set to           18
   GDM::PrEWSS: # of linearly dependent vectors =            0
   GDM::PrEWSS: Max dev from orthonormality =   1.120817258448703E-010
   GDM::BFGS:   lowest Hinv e-value    0.240595245846484     
   GDM::BFGS:   highest Hinv e-value    30.7742044172020     
   GDM::trust : dogleg step length is          0.108900000000000     
   GDM::      : max scaling in EWCs is          2.38950706910747     
   GDM::      : max rotation in step is        8.055146201353271E-002
   GDM::        grad.step =  -4.451778967779727E-003
   ------- Leaving GDM -- hopefully with a step in the right direction! --------
 
   65    -670.3735800649      1.09E-02  Gap = -163.29 eV  Dog-leg BFGS step
 
   ------------------- Entering Geometric Direct Minimization ------------------
   GDM::trust : actual energy change is        5.430198797284902E-004
   GDM::trust : predicted energy change was   -6.592435469767413E-003
   GDM::trust : updated trust radius is        3.593700000000000E-002
   GDM::search:  On step            1 .  The current bracket is:
       left   : x =  0.0000E+00, e =      -670.3735800649, g = -0.2659E-01
       current: x =  0.1674E+00, e =      -670.3730370450, g =  0.3287E-01
       right  : x =  0.1000E+04, e =      1000.0000000000, g =  0.1000E+04
       next   : x =  0.7460E-01
   GDM::      : max rotation in step is        3.589707167032842E-002
   ------- Leaving GDM -- hopefully with a step in the right direction! --------
 
   66    -670.3730370450      1.24E-02  Gap = -163.29 eV  Line search: overstep
 
   ------------------- Entering Geometric Direct Minimization ------------------
   GDM::trust : actual energy change is       -9.914949051790245E-004
   GDM::trust : predicted energy change was   -6.592435469767413E-003
   GDM::trust : updated trust radius is        3.593700000000000E-002
   GDM:         diagonal hessian shift is      0.000000000000000E+000
   GDM::PreWSS: input subspace size is                 19
   GDM::PreWSS: working subspace size set to           18
   GDM::PrEWSS: # of linearly dependent vectors =            0
   GDM::PrEWSS: Max dev from orthonormality =   5.447961005933255E-011
   GDM::BFGS:   lowest Hinv e-value    0.215640859630311     
   GDM::BFGS:   highest Hinv e-value    34.2589043933069     
   GDM::      : max scaling in EWCs is          2.39653271244353     
   GDM::      : max rotation in step is        3.121604822602250E-002
   GDM::        grad.step =  -2.425357012760737E-003
   ------- Leaving GDM -- hopefully with a step in the right direction! --------
 
   67    -670.3745715598      2.98E-02  Gap = -163.29 eV  Descent step
 
   ------------------- Entering Geometric Direct Minimization ------------------
   GDM::trust : actual energy change is        6.313469908718616E-004
   GDM::trust : predicted energy change was   -3.845771319435337E-003
   GDM::trust : updated trust radius is        0.108900000000000     
   GDM::search:  On step            1 .  The current bracket is:
       left   : x =  0.0000E+00, e =      -670.3745715598, g = -0.4530E-01
       current: x =  0.5354E-01, e =      -670.3739402128, g =  0.6890E-01
       right  : x =  0.1000E+04, e =      1000.0000000000, g =  0.1000E+04
       next   : x =  0.2124E-01
   GDM::      : max rotation in step is        1.238426445375262E-002
   ------- Leaving GDM -- hopefully with a step in the right direction! --------
 
   68    -670.3739402128      1.04E-02  Gap = -163.29 eV  Line search: overstep
 
   ------------------- Entering Geometric Direct Minimization ------------------
   GDM::trust : actual energy change is       -4.813665232177300E-004
   GDM::trust : predicted energy change was   -3.845771319435337E-003
   GDM::trust : updated trust radius is        0.108900000000000     
   GDM:         diagonal hessian shift is      0.000000000000000E+000
   GDM::PreWSS: input subspace size is                 19
[...]
 
   ------------------- Entering Geometric Direct Minimization ------------------
   GDM::trust : actual energy change is       -3.183231456205249E-012
   GDM::trust : predicted energy change was   -8.713249856887390E-012
   GDM::trust : updated trust radius is        0.330000000000000     
   GDM:         diagonal hessian shift is      0.000000000000000E+000
   GDM::PreWSS: input subspace size is                 13
   GDM::PreWSS: working subspace size set to           13
   GDM::PrEWSS: # of linearly dependent vectors =           11
   GDM::PrEWSS: Max dev from orthonormality =   1.024499929336287E-012
   GDM::BFGS:   lowest Hinv e-value    0.168183099591451     
   GDM::BFGS:   highest Hinv e-value    5.02335910834443     
   GDM::      : max scaling in EWCs is          2.57287367884837     
   GDM::      : max rotation in step is        7.829178751092107E-007
   GDM::        grad.step =  -8.875629338693651E-013
   ------- Leaving GDM -- hopefully with a step in the right direction! --------
 
   16    -670.4614241092      3.27E-07  Gap = -180.07 eV  Normal BFGS step
 
   ------------------- Entering Geometric Direct Minimization ------------------
   GDM::trust : actual energy change is       -4.547473508864641E-013
   GDM::trust : predicted energy change was   -1.331344400804048E-012
   GDM::trust : updated trust radius is        0.330000000000000     
   GDM:         diagonal hessian shift is      0.000000000000000E+000
   GDM::PreWSS: input subspace size is                 14
   GDM::PreWSS: working subspace size set to           14
   GDM::PrEWSS: # of linearly dependent vectors =           12
   GDM::PrEWSS: Max dev from orthonormality =   3.242621882809660E-012
   GDM::BFGS:   lowest Hinv e-value    0.168045171811049     
   GDM::BFGS:   highest Hinv e-value    5.06410735118510     
   GDM::      : max scaling in EWCs is          2.57287486081017     
   GDM::      : max rotation in step is        9.489044169215733E-007
   GDM::        grad.step =  -3.047038509247227E-013
   ------- Leaving GDM -- hopefully with a step in the right direction! --------
 
   17    -670.4614241092      2.34E-07  Gap = -180.07 eV  Normal BFGS step
 
   ------------------- Entering Geometric Direct Minimization ------------------
   GDM::trust : actual energy change is       -1.250555214937776E-012
   GDM::trust : predicted energy change was   -4.570557763870841E-013
   GDM::trust : updated trust radius is        0.330000000000000     
   GDM:         diagonal hessian shift is      0.000000000000000E+000
   GDM::PreWSS: input subspace size is                 15
   GDM::PreWSS: working subspace size set to           15
   GDM::PrEWSS: # of linearly dependent vectors =           13
   GDM::PrEWSS: Max dev from orthonormality =   2.234688128988083E-012
   GDM::BFGS:   lowest Hinv e-value    0.167752305843752     
   GDM::BFGS:   highest Hinv e-value    5.31357077258349     
   GDM::      : max scaling in EWCs is          2.57287473619348     
   GDM::      : max rotation in step is        7.814518457416002E-007
   GDM::        grad.step =  -1.226236512511954E-013
   ------- Leaving GDM -- hopefully with a step in the right direction! --------
 
   18    -670.4614241092      1.43E-07  Gap = -180.07 eV  Normal BFGS step
 
   ------------------- Entering Geometric Direct Minimization ------------------
   GDM::trust : actual energy change is        9.094947017729282E-013
   GDM::trust : predicted energy change was   -1.839354768767931E-013
   GDM::trust : updated trust radius is        0.108900000000000     
   GDM::WARNING energy changes are now smaller than effective accuracy.
   GDM::        calculation will continue, but THRESH should be increased
   GDM::        or SCF_CONVERGENCE decreased.
   GDM::        effective_thresh =   2.700000000000000E-010
   GDM:         diagonal hessian shift is      0.000000000000000E+000
   GDM::PreWSS: input subspace size is                 16
   GDM::PreWSS: working subspace size set to           16
   GDM::PrEWSS: # of linearly dependent vectors =           14
   GDM::PrEWSS: Max dev from orthonormality =   1.520908399221810E-012
   GDM::BFGS:   lowest Hinv e-value    0.168009758776935     
   GDM::BFGS:   highest Hinv e-value    5.51516802857791     
   GDM::      : max scaling in EWCs is          2.57287445614407     
   GDM::      : max rotation in step is        6.589385724223308E-007
   GDM::        grad.step =  -7.441140419191621E-014
   ------- Leaving GDM -- hopefully with a step in the right direction! --------
 
   19    -670.4614241092      7.24E-08  Gap = -180.07 eV  Normal BFGS step
 
   ------------------- Entering Geometric Direct Minimization ------------------
   GDM::trust : actual energy change is       -2.273736754432321E-012
   GDM::trust : predicted energy change was   -1.116171062878743E-013
   GDM::trust : updated trust radius is        0.330000000000000     
   GDM:         diagonal hessian shift is      0.000000000000000E+000
   GDM::PreWSS: input subspace size is                 17
   GDM::PreWSS: working subspace size set to           17
   GDM::PrEWSS: # of linearly dependent vectors =           15
   GDM::PrEWSS: Max dev from orthonormality =   7.036812105232215E-012
   GDM::BFGS:   lowest Hinv e-value    0.168151567674611     
   GDM::BFGS:   highest Hinv e-value    5.46179979263460     
   GDM::      : max scaling in EWCs is          2.57287434049367     
   GDM::      : max rotation in step is        2.073492907213080E-007
   GDM::        grad.step =  -1.811325920980630E-014
   ------- Leaving GDM -- hopefully with a step in the right direction! --------
 
   20    -670.4614241092      4.81E-08  Gap = -180.07 eV  Normal BFGS step
 
   ------------------- Entering Geometric Direct Minimization ------------------
   GDM::trust : actual energy change is        1.477928890381008E-012
   GDM::trust : predicted energy change was   -2.716988881470945E-014
   GDM::trust : updated trust radius is        0.108900000000000     
   GDM::WARNING energy changes are now smaller than effective accuracy.
   GDM::        calculation will continue, but THRESH should be increased
   GDM::        or SCF_CONVERGENCE decreased.
   GDM::        effective_thresh =   2.700000000000000E-010
   GDM:         diagonal hessian shift is      0.000000000000000E+000
   GDM::PreWSS: input subspace size is                 18
   GDM::PreWSS: working subspace size set to           18
   GDM::PrEWSS: # of linearly dependent vectors =           16
   GDM::PrEWSS: Max dev from orthonormality =   4.246034079891103E-012
   GDM::BFGS:   lowest Hinv e-value    0.168005554886085     
   GDM::BFGS:   highest Hinv e-value    5.29854696273170     
   GDM::      : max scaling in EWCs is          2.57287442469928     
   GDM::      : max rotation in step is        9.705245282963895E-008
   GDM::        grad.step =  -3.483470342587683E-015
   ------- Leaving GDM -- hopefully with a step in the right direction! --------
 
   21    -670.4614241092      2.34E-08  Gap = -180.07 eV  Normal BFGS step
 
   ------------------- Entering Geometric Direct Minimization ------------------
   GDM::trust : actual energy change is        2.273736754432321E-013
   GDM::trust : predicted energy change was   -5.225205513881523E-015
   GDM::trust : updated trust radius is        0.108900000000000     
   GDM::WARNING energy changes are now smaller than effective accuracy.
   GDM::        calculation will continue, but THRESH should be increased
   GDM::        or SCF_CONVERGENCE decreased.
   GDM::        effective_thresh =   2.700000000000000E-010
   GDM:         diagonal hessian shift is      0.000000000000000E+000
   GDM::PreWSS: input subspace size is                 19
   GDM::PreWSS: working subspace size set to           18
   GDM::PrEWSS: # of linearly dependent vectors =           16
   GDM::PrEWSS: Max dev from orthonormality =   1.496025525682398E-014
   GDM::BFGS:   lowest Hinv e-value    0.168050408045366     
   GDM::BFGS:   highest Hinv e-value    5.28339964957503     
   GDM::      : max scaling in EWCs is          2.57287446027571     
   GDM::      : max rotation in step is        4.700410913994209E-008
   GDM::        grad.step =  -9.516885399019542E-016
   ------- Leaving GDM -- hopefully with a step in the right direction! --------
 
   22    -670.4614241092      9.73E-09 Convergence criterion met
 ---------------------------------------
 One-Electron    Energy = -1382.1105181055
 Total Coulomb   Energy =   545.8979963894
 Alpha Exchange  Energy =    -5.6335075662
 Beta  Exchange  Energy =    -5.3358622386
 DFT   Exchange  Energy =   -43.8122404256
 DFT Correlation Energy =    -2.4306152170
 Nuclear Repu.   Energy =   222.9633230543
 Nuclear Attr.   Energy = -2027.1283012240
 Kinetic         Energy =   645.0177831185
 <S^2> = 2.0410
 SCF time:  CPU 91.89 s  wall 11.47 s
 SCF   energy in the final basis set = -670.4614241092
 Total energy in the final basis set = -670.4614241092
 
 --------------------------------------------------------------
 
                    Orbital Energies (a.u.)
 --------------------------------------------------------------
 
 Alpha MOs
 -- Occupied --
-88.969 -19.238 -19.191 -19.191  -8.038  -6.002  -6.002  -5.992
 -2.078  -1.300  -1.291  -1.279  -1.068  -0.927  -0.911  -0.717
 -0.472  -0.468  -0.459  -0.414  -0.373  -0.367  -0.364  -0.355
 -0.345  -0.300  -0.299
 -- Virtual --
 -0.121  -0.064  -0.050  -0.040  -0.010  -0.002   0.008   0.013
  0.022   0.028   0.062   0.067   0.084   0.092   0.117   0.143
  0.153   0.174   0.191   0.193   0.203   0.205   0.220   0.232
  0.251   0.259   0.268   0.276   0.278   0.310   0.315   0.386
  0.468   0.477   0.489   0.506   0.572   0.649   0.708   0.715
  0.751   0.825   1.000   1.091   1.127   1.150   1.152   1.169
  1.195   1.206   1.212   1.247   1.596   1.684   1.686   1.721
  1.748   1.760   1.762   1.772   1.774   1.790   1.827   1.832
  1.849   1.856   1.900   1.932   1.991   2.486  14.216
 
 Beta MOs
 -- Occupied --
-88.965 -19.228 -19.176 -19.175  -8.034  -6.000  -5.989  -5.989
 -2.082  -1.302  -1.295  -1.283  -1.047  -0.884  -0.868  -0.685
 -0.459  -0.447  -0.415  -0.354  -0.350  -0.341  -0.338  -0.314
 -0.288
 -- Virtual --
 -0.213  -0.181  -0.122  -0.058  -0.046  -0.036  -0.008   0.004
  0.012   0.023   0.030   0.032   0.062   0.072   0.087   0.094
  0.119   0.145   0.157   0.177   0.197   0.198   0.206   0.209
  0.230   0.235   0.252   0.262   0.269   0.279   0.283   0.312
  0.316   0.389   0.480   0.490   0.494   0.511   0.586   0.667
  0.726   0.729   0.785   0.844   1.018   1.132   1.143   1.163
  1.183   1.184   1.203   1.223   1.245   1.256   1.614   1.699
  1.711   1.749   1.768   1.783   1.793   1.797   1.815   1.826
  1.841   1.858   1.858   1.880   1.927   1.946   2.009   2.497
 14.217
 --------------------------------------------------------------
 
          Ground-State Mulliken Net Atomic Charges

     Atom                 Charge (a.u.)    Spin (a.u.)
  --------------------------------------------------------
      1 Zr                    1.333264      -0.261846
      2 O                    -0.525886       0.609381
      3 O                    -0.541718       0.300796
      4 O                    -0.525575       0.615083
      5 S                     0.259915       0.736587
  --------------------------------------------------------
  Sum of atomic charges =     0.000000
  Sum of spin   charges =     2.000000

 -----------------------------------------------------------------
                    Cartesian Multipole Moments
 -----------------------------------------------------------------
    Charge (ESU x 10^10)
                 0.0000
    Dipole Moment (Debye)
         X      -2.4226      Y      -0.0113      Z      -1.0865
       Tot       2.6551
    Quadrupole Moments (Debye-Ang)
        XX     -57.5605     XY       0.0034     YY     -59.3461
        XZ       4.3808     YZ       0.0337     ZZ     -48.0941
    Octopole Moments (Debye-Ang^2)
       XXX      10.3533    XXY      -0.0471    XYY     -11.8833
       YYY      -0.0105    XXZ      -2.0867    XYZ       0.0759
       YYZ       4.0863    XZZ      10.2837    YZZ      -0.0445
       ZZZ       0.9252
    Hexadecapole Moments (Debye-Ang^3)
      XXXX    -675.9784   XXXY       0.2192   XXYY    -172.9252
      XYYY       0.2985   YYYY    -264.2685   XXXZ      20.4478
      XXYZ       0.1423   XYYZ       5.2923   YYYZ       0.2745
      XXZZ    -126.6625   XYZZ       0.0889   YYZZ     -58.3944
      XZZZ      17.0148   YZZZ       0.2096   ZZZZ    -106.3293
 -----------------------------------------------------------------
 Calculating analytic gradient of the SCF energy
 Gradient of SCF Energy
            1           2           3           4           5
    1  -0.0000814   0.0001046  -0.0000558  -0.0000163   0.0000489
    2  -0.0001471   0.0000335  -0.0000130   0.0001263   0.0000003
    3   0.0000195  -0.0000282   0.0000051  -0.0000076   0.0000113
 Max gradient component =       1.471E-04
 RMS gradient           =       6.511E-05
 Gradient time:  CPU 11.17 s  wall 1.63 s
 Geometry Optimization Parameters
   NAtoms,    NIC,     NZ,  NCons,   NDum,   NFix, NCnnct, MaxDiis
        5      27       0       0       0       0       0       0

 Cartesian Hessian Update
 Hessian Updated using BFGS Update


** GEOMETRY OPTIMIZATION IN DELOCALIZED INTERNAL COORDINATES **
   Searching for a Minimum

   Optimization Cycle:  11

                       Coordinates (Angstroms)
     ATOM                X               Y               Z
      1  Zr        0.4993502889   -0.0002173742   -0.0531721831
      2  O         1.5324807464    1.5428013467   -0.1818216644
      3  O        -1.3485854282    0.0043463539    1.0812862117
      4  O         1.5318698359   -1.5459296011   -0.1722307659
      5  S        -2.1126954431    0.0009292747   -0.3466915983
   Point Group: c1    Number of degrees of freedom:     9


   Energy is   -670.461424109

 Hessian Updated using BFGS Update

  9 Hessian modes will be used to form the next step
  Hessian Eigenvalues:
     0.008910    0.055850    0.068637    0.153255    0.177882    0.187650
     0.310715    0.354527    0.452447

 Minimum Search - Taking Simple RFO Step
 Searching for Lamda that Minimizes Along All modes
 Value Taken    Lamda =   0.00000000
 Step Taken.  Stepsize is  0.002167

                             Maximum     Tolerance    Cnvgd?
         Gradient           0.000150      0.000300     YES
         Displacement       0.001898      0.001200      NO
         Energy change     -0.000001      0.000001     YES


                       Distance Matrix (Angstroms)
             Zr(  1)   O (  2)   O (  3)   O (  4)
   O (  2)  1.861402
   O (  3)  2.168383  3.501832
   O (  4)  1.862659  3.088746  3.503096
   S (  5)  2.628486  3.961295  1.619567  3.963088
 
 Final energy is   -670.461424109219     


 ******************************
 **  OPTIMIZATION CONVERGED  **
 ******************************

                       Coordinates (Angstroms)
     ATOM                X               Y               Z
      1  Zr        0.4993502889   -0.0002173742   -0.0531721831
      2  O         1.5324807464    1.5428013467   -0.1818216644
      3  O        -1.3485854282    0.0043463539    1.0812862117
      4  O         1.5318698359   -1.5459296011   -0.1722307659
      5  S        -2.1126954431    0.0009292747   -0.3466915983

Z-matrix Print:
$molecule
0 3
Zr
O  1 1.861402
O  1 1.862659 2 112.074861
O  1 2.168383 2 120.492129 3 -150.982359 0
S  4 1.619567 1 86.604964 2 -105.696882 0
$end

 
 --------------------------------------------------------------
 
                    Orbital Energies (a.u.)
 --------------------------------------------------------------
 
 Alpha MOs
 -- Occupied --
-88.969 -19.238 -19.191 -19.191  -8.038  -6.002  -6.002  -5.992
 -2.078  -1.300  -1.291  -1.279  -1.068  -0.927  -0.911  -0.717
 -0.472  -0.468  -0.459  -0.414  -0.373  -0.367  -0.364  -0.355
 -0.345  -0.300  -0.299
 -- Virtual --
 -0.121  -0.064  -0.050  -0.040  -0.010  -0.002   0.008   0.013
  0.022   0.028   0.062   0.067   0.084   0.092   0.117   0.143
  0.153   0.174   0.191   0.193   0.203   0.205   0.220   0.232
  0.251   0.259   0.268   0.276   0.278   0.310   0.315   0.386
  0.468   0.477   0.489   0.506   0.572   0.649   0.708   0.715
  0.751   0.825   1.000   1.091   1.127   1.150   1.152   1.169
  1.195   1.206   1.212   1.247   1.596   1.684   1.686   1.721
  1.748   1.760   1.762   1.772   1.774   1.790   1.827   1.832
  1.849   1.856   1.900   1.932   1.991   2.486  14.216
 
 Beta MOs
 -- Occupied --
-88.965 -19.228 -19.176 -19.175  -8.034  -6.000  -5.989  -5.989
 -2.082  -1.302  -1.295  -1.283  -1.047  -0.884  -0.868  -0.685
 -0.459  -0.447  -0.415  -0.354  -0.350  -0.341  -0.338  -0.314
 -0.288
 -- Virtual --
 -0.213  -0.181  -0.122  -0.058  -0.046  -0.036  -0.008   0.004
  0.012   0.023   0.030   0.032   0.062   0.072   0.087   0.094
  0.119   0.145   0.157   0.177   0.197   0.198   0.206   0.209
  0.230   0.235   0.252   0.262   0.269   0.279   0.283   0.312
  0.316   0.389   0.480   0.490   0.494   0.511   0.586   0.667
  0.726   0.729   0.785   0.844   1.018   1.132   1.143   1.163
  1.183   1.184   1.203   1.223   1.245   1.256   1.614   1.699
  1.711   1.749   1.768   1.783   1.793   1.797   1.815   1.826
  1.841   1.858   1.858   1.880   1.927   1.946   2.009   2.497
 14.217
 --------------------------------------------------------------
 
          Ground-State Mulliken Net Atomic Charges

     Atom                 Charge (a.u.)    Spin (a.u.)
  --------------------------------------------------------
      1 Zr                    1.333264      -0.261846
      2 O                    -0.525886       0.609381
      3 O                    -0.541718       0.300796
      4 O                    -0.525575       0.615083
      5 S                     0.259915       0.736587
  --------------------------------------------------------
  Sum of atomic charges =     0.000000
  Sum of spin   charges =     2.000000

 -----------------------------------------------------------------
                    Cartesian Multipole Moments
 -----------------------------------------------------------------
    Charge (ESU x 10^10)
                 0.0000
    Dipole Moment (Debye)
         X      -2.4226      Y      -0.0113      Z      -1.0865
       Tot       2.6551
    Quadrupole Moments (Debye-Ang)
        XX     -57.5605     XY       0.0034     YY     -59.3461
        XZ       4.3808     YZ       0.0337     ZZ     -48.0941
    Octopole Moments (Debye-Ang^2)
       XXX      10.3533    XXY      -0.0471    XYY     -11.8833
       YYY      -0.0105    XXZ      -2.0867    XYZ       0.0759
       YYZ       4.0863    XZZ      10.2837    YZZ      -0.0445
       ZZZ       0.9252
    Hexadecapole Moments (Debye-Ang^3)
      XXXX    -675.9784   XXXY       0.2192   XXYY    -172.9252
      XYYY       0.2985   YYYY    -264.2685   XXXZ      20.4478
      XXYZ       0.1423   XYYZ       5.2923   YYYZ       0.2745
      XXZZ    -126.6625   XYZZ       0.0889   YYZZ     -58.3944
      XZZZ      17.0148   YZZZ       0.2096   ZZZZ    -106.3293
 -----------------------------------------------------------------
Archival summary:
1\1\hpc3926\OPT\ProcedureUnspecified\BasisUnspecified\r113(\liqiuy\FriJan1719:44:112020FriJan1719:44:112020\0\\#,OPT,ProcedureUnspecified,BasisUnspecified,\\28,3\Zr\O,1,1.8614\O,1,1.86266,2,112.075\O,1,2.16838,2,120.492,3,-150.982,0\S,4,1.61957,1,86.605,2,-105.697,0\\\@

 Total job time:  156.58s(wall), 1226.46s(cpu) 
 Fri Jan 17 19:44:11 2020

        *************************************************************
        *                                                           *
        *  Thank you very much for using Q-Chem.  Have a nice day.  *
        *                                                           *
        *************************************************************


0 sent ACK to 0 
now end server 0 ... 
cleanup process ... done
