
Running Job 1 of 2 ZrOx.in
qchem ZrOx.in_14107.0 /tmp/5732703.priya/ZrOx.save/ 1
/usr/usc/qchem/4.4/bin/mpi/mpirun_qchem -machinefile /usr/usc/qchem/4.4/bin/mpi/machines -np 1 /usr/usc/qchem/4.4/exe/qcprog.exe ZrOx.in_14107.0 /tmp/5732703.priya/ZrOx.save/

Process 0 of 1 is on hpc3915.hpcc.usc.edu - thread support 0
initial socket setup ...start
initial socket setup ...done 
now start server 0 ... 
Check license passed

                  Welcome to Q-Chem
     A Quantum Leap Into The Future Of Chemistry


 Q-Chem 4.4, Q-Chem, Inc., Pleasanton, CA (2016)

 Y. Shao,  Z. Gan,  E. Epifanovsky,  A. T. B. Gilbert,  M. Wormit,  
 J. Kussmann,  A. W. Lange,  A. Behn,  J. Deng,  X. Feng,  D. Ghosh,  
 M. Goldey,  P. R. Horn,  L. D. Jacobson,  I. Kaliman,  F.Rob,  
 R. Z. Khaliullin,  T. Kus,  A. Landau,  J. Liu,  E. I. Proynov,  Y. M. Rhee,  
 R. M. Richard,  M. A. Rohrdanz,  R. P. Steele,  E. J. Sundstrom,  
 H. L. Woodcock III,  P. M. Zimmerman,  D. Zuev,  B. Albrecht,  E. Alguire,  
 B. Austin,  S. A. Baeppler,  G. J. O. Beran,  Y. A. Bernard,  E. Berquist,  
 K. Brandhorst,  K. B. Bravaya,  S. T. Brown,  D. Casanova,  C.-M. Chang,  
 Y. Chen,  S. H. Chien,  K. D. Closser,  M. P. Coons,  D. L. Crittenden,  
 S. Dasgupta,  M. Diedenhofen,  R. A. DiStasio Jr.,  H. Do,  A. D. Dutoi,  
 R. G. Edgar,  P.-T. Fang,  S. Fatehi,  Q. Feng,  L. Fusti-Molnar,  
 A. Ghysels,  A. Golubeva-Zadorozhnaya,  J. Gomes,  A. Gunina,  
 M. W. D. Hanson-Heine,  P. H. P. Harbach,  A. W. Hauser,  E. G. Hohenstein,  
 Z. C. Holden,  K. Hui,  T.-C. Jagau,  H. Ji,  B. Kaduk,  K. Khistyaev,  
 Jaehoon Kim,  Jihan Kim,  R. A. King,  P. Klunzinger,  D. Kosenkov,  
 T. Kowalczyk,  C. M. Krauter,  A. Kunitsa,  K. U. Lao,  A. Laurent,  
 K. V. Lawler,  D. Lefrancois,  S. Lehtola,  S. V. Levchenko,  C. Y. Lin,  
 Y.-S. Lin,  F. Liu,  E. Livshits,  R. C. Lochan,  A. Luenser,  P. Manohar,  
 S. F. Manzer,  S.-P. Mao,  Y. Mao,  N. Mardirossian,  A. V. Marenich,  
 L. A. Martinez-Martinez,  S. A. Maurer,  N. J. Mayhall,  J.-M. Mewes,  
 A. F. Morrison,  K. Nanda,  C. M. Oana,  R. Olivares-Amaya,  D. P. O'Neill,  
 J. A. Parkhill,  T. M. Perrine,  R. Peverati,  P. A. Pieniazek,  F. Plasser,  
 A. Prociuk,  D. R. Rehn,  E. Rosta,  N. J. Russ,  N. Sergueev,  
 S. M. Sharada,  S. Sharma,  D. W. Small,  A. Sodt,  T. Stauch,  T. Stein,  
 D. Stuck,  Y.-C. Su,  A. J. W. Thom,  T. Tsuchimochi,  L. Vogt,  O. Vydrov,  
 T. Wang,  M. A. Watson,  J. Wenzel,  A. White,  C. F. Williams,  
 V. Vanovschi,  S. Yeganeh,  S. R. Yost,  Z.-Q. You,  I. Y. Zhang,  X. Zhang,  
 Y. Zhao,  B. R. Brooks,  G. K. L. Chan,  D. M. Chipman,  C. J. Cramer,  
 W. A. Goddard III,  M. S. Gordon,  W. J. Hehre,  A. Klamt,  
 H. F. Schaefer III,  M. W. Schmidt,  C. D. Sherrill,  D. G. Truhlar,  
 A. Warshel,  X. Xu,  A. Aspuru-Guzik,  R. Baer,  A. T. Bell,  N. A. Besley,  
 J.-D. Chai,  A. Dreuw,  B. D. Dunietz,  T. R. Furlani,  S. R. Gwaltney,  
 C.-P. Hsu,  Y. Jung,  J. Kong,  D. S. Lambrecht,  W. Liang,  C. Ochsenfeld,  
 V. A. Rassolov,  L. V. Slipchenko,  J. E. Subotnik,  T. Van Voorhis,  
 J. M. Herbert,  A. I. Krylov,  P. M. W. Gill,  M. Head-Gordon

 Contributors to earlier versions of Q-Chem not listed above: 
 R. D. Adamson,  J. Baker,  E. F. C. Byrd,  A. K. Chakraborty,  C.-L. Cheng,  
 H. Dachsel,  R. J. Doerksen,  G. Hawkins,  A. Heyden,  S. Hirata,  
 G. Kedziora,  F. J. Keil,  C. Kelley,  P. P. Korambath,  W. Kurlancheek,  
 A. M. Lee,  M. S. Lee,  D. Liotard,  I. Lotan,  P. E. Maslen,  N. Nair,  
 D. Neuhauser,  R. Olson,  B. Peters,  J. Ritchie,  N. E. Schultz,  
 N. Shenvi,  A. C. Simmonett,  K. S. Thanthiriwatte,  Q. Wu,  W. Zhang

 Please cite Q-Chem as follows:
 Y. Shao et al., Mol. Phys. 113, 184-215 (2015)
 DOI: 10.1080/00268976.2014.952696

 Q-Chem 4.4.1 for Intel X86 Linux

 Parts of Q-Chem use Armadillo 5.200.1 (Boston Tea Smuggler).
 http://arma.sourceforge.net/

 Q-Chem begins on Fri Jan 17 19:41:06 2020  

Host: 
0

     Scratch files written to /tmp/5732703.priya/ZrOx.save//
 Jul2716 11668_ 21447  21445 5558   
 Parallel job on  1  processors
Processing $rem in /usr/usc/qchem/4.4/config/preferences.
 MEM_TOTAL  2000 

Checking the input file for inconsistencies... 	...done.

--------------------------------------------------------------
User input:
--------------------------------------------------------------
$comment
--------------------------------------------------------
A SINGLE POINT DFT CALCULATION WITH BASIS SET PROJECTION
--------------------------------------------------------
$end

$molecule
0 1
Zr 0.63655 -0.00769 0.00000
O 1.96662 1.09301 0.00000
O -1.12170 0.70950 0.00000
O 1.00349 -1.69339 0.00000
S -2.58263 -0.04362 0.00000
$end

$rem
JOBTYPE   SP
METHOD   B3LYP
BASIS   GEN
ECP   GEN
MAX_SCF_CYCLES   200
SCF_CONVERGENCE 8
SCF_ALGORITHM  DIIS_GDM
SCF_PRINT 1
PDB_PRINT 2
THRESH 14
VARTHRESH 14
INCDFT FALSE
SYMMETRY False
Sym_ignore True
SCF_ALGORITHM GDM
XC_GRID 000128000302
DFT_D           EMPIRICAL_GRIMME3
DFT_D3_S6       1000
DFT_D3_RS6     1261
DFT_D3_S8      1703
DFT_D3_3BODY    FALSE
$end

$basis
O
6-31+G**
****
S
6-31+G**
****
Zr
LanL2DZ
****
$end

$ecp
Zr
LanL2DZ
****
$end

--------------------------------------------------------------
 ----------------------------------------------------------------
             Standard Nuclear Orientation (Angstroms)
    I     Atom           X                Y                Z
 ----------------------------------------------------------------
    1      Zr      0.6365500000    -0.0076900000     0.0000000000
    2      O       1.9666200000     1.0930100000     0.0000000000
    3      O      -1.1217000000     0.7095000000     0.0000000000
    4      O       1.0034900000    -1.6933900000     0.0000000000
    5      S      -2.5826300000    -0.0436200000     0.0000000000
 ----------------------------------------------------------------
 Nuclear Repulsion Energy =   222.9258162637 hartrees
 There are       26 alpha and       26 beta electrons

 Q-Chem warning in module /home/scratch/svnadmin/11668_zgan/qchem/forms1/BasisType.C, line 1419:

 Setting pure/cartesian flag to 2111 for general basis


 Requested basis set is non-standard
 There are 29 shells and 98 basis functions

 Total QAlloc Memory Limit   2000 MB
 Mega-Array Size        61 MB
 MEM_STATIC part        62 MB

                       Distance Matrix (Angstroms)
             Zr(  1)   O (  2)   O (  3)   O (  4)
   O (  2)  1.726449
   O (  3)  1.898896  3.112041
   O (  4)  1.725175  2.948159  3.207852
   S (  5)  3.219381  4.689094  1.643626  3.947404
 
 A cutoff of  1.0D-14 yielded    418 shell pairs
 There are      4904 function pairs (      5535 Cartesian)
 
 -------------------------------------------------------
 OpenMP Integral Computing Module                       
 Release: version 1.0, May 2013, Q-Chem Inc. Pittsburgh 
 -------------------------------------------------------
 Integral Job Info:
 Integral job number is                      11
 Integral operator is                         1
 short-range coefficients                     0
 long-range coefficients              100000000
 Omega coefficients                           0
 if combine SR and LR in K                    0
 Integral screening is                        0
 Integral computing path is                   2
 max size of driver memory is            800000
 size of driver memory is                593474
 size of scratch memory is             15166112
 max col of scratch BK array               1296
 max len of scratch array in speh3          155
 max len of scratch index in speh4           18
 max int batch size is                      520
 min int batch size is                       52
 fixed nKL is                                52
 max L of basis functions is                  2
 order of int derivative is                   0
 number of shells is                         29
 number of basis is                         104
 number of cartesian basis is               104
 number of contracted shell pairs           418
 number of primitive shell pairs           2056
 maxK2 (contraction) of shell pair           36
 max number of K2 of shell pair               1
 max number of CS2 of shell pair             43
 max number of PS2 of shell pair            222
 mem total for path MDJ                   21208
 -------------------------------------------------------
 Requested basis set is non-standard
 Compound shells will be simplified
 There are 42 shells and 98 basis functions
 A cutoff of  1.0D-14 yielded    875 shell pairs
 There are      4865 function pairs (      5496 Cartesian)
 Smallest overlap matrix eigenvalue = 6.92E-04

 Scale SEOQF with 1.000000e-01/1.000000e-01/1.000000e-01

 Standard Electronic Orientation quadrupole field applied
 Nucleus-field energy     =     0.0000000083 hartrees
 Guess MOs from core Hamiltonian diagonalization
 A restricted hybrid HF-DFT SCF calculation will be
 performed using Geometric Direct Minimization
 Exchange:     0.2000 Hartree-Fock + 0.0800 Slater + 0.7200 B88
 Correlation:  0.1900 VWN1RPA + 0.8100 LYP
 Using Euler-Maclaurin-Lebedev (128,302) quadrature formula
 Dispersion:   Grimme D3
 SCF converges when RMS gradient is below 1.0E-08
 Maximum number of minimization steps = 200
 using 12 threads for integral computing 
 -------------------------------------------------------
 OpenMP BLAS3 based DFT computing Module                
 Release: version 1.0, May 2013, Q-Chem Inc. Pittsburgh 
 -------------------------------------------------------
 
   ------------------- Entering Geometric Direct Minimization ------------------
   GDM:         diagonal hessian shift is      0.000000000000000E+000
   GDM::PreWSS: input subspace size is                  1
   GDM::PreWSS: working subspace size set to            1
   GDM::PrEWSS: # of linearly dependent vectors =            0
   GDM::PrEWSS: Max dev from orthonormality =   0.000000000000000E+000
   GDM::BFGS:   lowest Hinv e-value     1.00000000000000     
   GDM::BFGS:   highest Hinv e-value    1.00000000000000     
   GDM::      : max scaling in EWCs is          1.41421356237309     
   GDM::      : max rotation in step is       -0.135896281600518     
   GDM::        grad.step =   -2.08951409209851     
   ------- Leaving GDM -- hopefully with a step in the right direction! --------
 
 ---------------------------------------
  Cycle       Energy        RMS Gradient
 ---------------------------------------
    1    -647.5648986456      1.84E+00  Gap = 0.00 eV  Descent step
 
   ------------------- Entering Geometric Direct Minimization ------------------
   GDM::trust : actual energy change is        -4.04613486066319     
   GDM::trust : predicted energy change was   -0.163350000000000     
   GDM::trust : updated trust radius is        0.330000000000000     
   GDM:         diagonal hessian shift is      0.000000000000000E+000
   GDM::PreWSS: input subspace size is                  2
   GDM::PreWSS: working subspace size set to            2
   GDM::PrEWSS: # of linearly dependent vectors =            0
   GDM::PrEWSS: Max dev from orthonormality =   7.396860901565105E-015
   GDM::BFGS:   lowest Hinv e-value    0.604904980971740     
   GDM::BFGS:   highest Hinv e-value    1.90043150373955     
   GDM::      : max scaling in EWCs is          1.41421356237309     
   GDM::      : max rotation in step is       -0.122450216573602     
   GDM::        grad.step =   -1.76988696282425     
   ------- Leaving GDM -- hopefully with a step in the right direction! --------
 
    2    -651.6110335063      1.41E+00  Gap = 0.00 eV  Descent step
 
   ------------------- Entering Geometric Direct Minimization ------------------
   GDM::trust : actual energy change is        -3.39913891212336     
   GDM::trust : predicted energy change was   -0.146349126827667     
   GDM::trust : updated trust radius is        0.330000000000000     
   GDM:         diagonal hessian shift is      0.000000000000000E+000
   GDM::PreWSS: input subspace size is                  3
   GDM::PreWSS: working subspace size set to            3
   GDM::PrEWSS: # of linearly dependent vectors =            0
   GDM::PrEWSS: Max dev from orthonormality =   4.243289747352108E-013
   GDM::BFGS:   lowest Hinv e-value    0.479994564022397     
   GDM::BFGS:   highest Hinv e-value    1.53313522628445     
   GDM::      : max scaling in EWCs is          1.41421356237309     
   GDM::      : max rotation in step is       -0.114317148184557     
   GDM::        grad.step =   -1.63242769051036     
   ------- Leaving GDM -- hopefully with a step in the right direction! --------
 
    3    -655.0101724184      1.56E+00  Gap = 0.00 eV  Descent step
 
   ------------------- Entering Geometric Direct Minimization ------------------
   GDM::trust : actual energy change is        -3.09666698104274     
   GDM::trust : predicted energy change was   -0.154593415123166     
   GDM::trust : updated trust radius is        0.330000000000000     
   GDM:         diagonal hessian shift is      0.000000000000000E+000
   GDM::PreWSS: input subspace size is                  4
   GDM::PreWSS: working subspace size set to            4
   GDM::PrEWSS: # of linearly dependent vectors =            0
   GDM::PrEWSS: Max dev from orthonormality =   4.491129690364914E-013
   GDM::BFGS:   lowest Hinv e-value    0.414050031869296     
   GDM::BFGS:   highest Hinv e-value    1.46777365193864     
   GDM::      : max scaling in EWCs is          1.41421356237309     
   GDM::      : max rotation in step is       -0.191572266358603     
   GDM::        grad.step =   -1.46986597619116     
   ------- Leaving GDM -- hopefully with a step in the right direction! --------
 
    4    -658.1068393994      1.83E+00  Gap = 0.00 eV  Descent step
 
   ------------------- Entering Geometric Direct Minimization ------------------
   GDM::trust : actual energy change is        -2.68827531791555     
   GDM::trust : predicted energy change was   -0.173135311607211     
   GDM::trust : updated trust radius is        0.330000000000000     
   GDM:         diagonal hessian shift is      0.000000000000000E+000
   GDM::PreWSS: input subspace size is                  5
   GDM::PreWSS: working subspace size set to            5
   GDM::PrEWSS: # of linearly dependent vectors =            0
   GDM::PrEWSS: Max dev from orthonormality =   1.685202324908097E-012
   GDM::BFGS:   lowest Hinv e-value    0.344426083975529     
   GDM::BFGS:   highest Hinv e-value    1.60033785592189     
   GDM::      : max scaling in EWCs is          2.82842712474619     
   GDM::      : max rotation in step is       -0.212619493107110     
   GDM::        grad.step =   -1.22621327122868     
   ------- Leaving GDM -- hopefully with a step in the right direction! --------
 
    5    -660.7951147174      1.19E+00  Gap = 0.00 eV  Descent step
 
   ------------------- Entering Geometric Direct Minimization ------------------
   GDM::trust : actual energy change is        -2.25177899195421     
   GDM::trust : predicted energy change was   -0.160911836258567     
   GDM::trust : updated trust radius is        0.330000000000000     
   GDM:         diagonal hessian shift is      0.000000000000000E+000
   GDM::PreWSS: input subspace size is                  6
   GDM::PreWSS: working subspace size set to            6
   GDM::PrEWSS: # of linearly dependent vectors =            0
   GDM::PrEWSS: Max dev from orthonormality =   1.255620607487629E-012
   GDM::BFGS:   lowest Hinv e-value    0.294763521158732     
   GDM::BFGS:   highest Hinv e-value    1.59610056455227     
   GDM::      : max scaling in EWCs is          2.82842712474619     
   GDM::      : max rotation in step is        0.203347220362210     
   GDM::        grad.step =  -0.985387548136392     
   ------- Leaving GDM -- hopefully with a step in the right direction! --------
 
    6    -663.0468937093      1.10E+00  Gap = 0.00 eV  Descent step
 
   ------------------- Entering Geometric Direct Minimization ------------------
   GDM::trust : actual energy change is        -1.79568667437604     
   GDM::trust : predicted energy change was   -0.161944110506445     
   GDM::trust : updated trust radius is        0.330000000000000     
   GDM:         diagonal hessian shift is      0.000000000000000E+000
   GDM::PreWSS: input subspace size is                  7
   GDM::PreWSS: working subspace size set to            7
   GDM::PrEWSS: # of linearly dependent vectors =            0
   GDM::PrEWSS: Max dev from orthonormality =   1.440833563570720E-012
   GDM::BFGS:   lowest Hinv e-value    0.267655899560571     
   GDM::BFGS:   highest Hinv e-value    1.98720828210440     
   GDM::      : max scaling in EWCs is          2.82842712474619     
   GDM::      : max rotation in step is       -0.339125674339398     
   GDM::        grad.step =  -0.884627703951608     
   ------- Leaving GDM -- hopefully with a step in the right direction! --------
 
    7    -664.8425803837      1.40E+00  Gap = 0.00 eV  Descent step
 
   ------------------- Entering Geometric Direct Minimization ------------------
   GDM::trust : actual energy change is        -1.45128189195464     
   GDM::trust : predicted energy change was   -0.165496867104076     
   GDM::trust : updated trust radius is        0.330000000000000     
   GDM:         diagonal hessian shift is      0.000000000000000E+000
   GDM::PreWSS: input subspace size is                  8
   GDM::PreWSS: working subspace size set to            8
   GDM::PrEWSS: # of linearly dependent vectors =            0
   GDM::PrEWSS: Max dev from orthonormality =   4.337426251499465E-012
   GDM::BFGS:   lowest Hinv e-value    0.250925539586000     
   GDM::BFGS:   highest Hinv e-value    2.52804734607236     
   GDM::      : max scaling in EWCs is          2.82842712474619     
   GDM::      : max rotation in step is       -0.328333999870758     
   GDM::        grad.step =  -0.622502280380659     
   ------- Leaving GDM -- hopefully with a step in the right direction! --------
 
    8    -666.2938622756      6.85E-01  Gap = 0.00 eV  Descent step
 
   ------------------- Entering Geometric Direct Minimization ------------------
   GDM::trust : actual energy change is        -1.04547003761968     
   GDM::trust : predicted energy change was   -0.162430609392488     
   GDM::trust : updated trust radius is        0.330000000000000     
   GDM:         diagonal hessian shift is      0.000000000000000E+000
   GDM::PreWSS: input subspace size is                  9
   GDM::PreWSS: working subspace size set to            9
   GDM::PrEWSS: # of linearly dependent vectors =            0
   GDM::PrEWSS: Max dev from orthonormality =   8.144110386076875E-013
   GDM::BFGS:   lowest Hinv e-value    0.243917123925634     
   GDM::BFGS:   highest Hinv e-value    3.25404948242620     
   GDM::      : max scaling in EWCs is          2.82842712474619     
   GDM::      : max rotation in step is       -0.295585574491974     
   GDM::        grad.step =  -0.407165870919097     
   ------- Leaving GDM -- hopefully with a step in the right direction! --------
 
    9    -667.3393323133      3.91E-01  Gap = 0.00 eV  Descent step
 
   ------------------- Entering Geometric Direct Minimization ------------------
   GDM::trust : actual energy change is       -0.658349878457216     
   GDM::trust : predicted energy change was   -0.163288803619260     
   GDM::trust : updated trust radius is        0.330000000000000     
   GDM:         diagonal hessian shift is      0.000000000000000E+000
   GDM::PreWSS: input subspace size is                 10
   GDM::PreWSS: working subspace size set to           10
   GDM::PrEWSS: # of linearly dependent vectors =            0
   GDM::PrEWSS: Max dev from orthonormality =   1.070272342973411E-012
   GDM::BFGS:   lowest Hinv e-value    0.224187842313304     
   GDM::BFGS:   highest Hinv e-value    3.71117068449782     
   GDM::      : max scaling in EWCs is          2.82842712474619     
   GDM::      : max rotation in step is        0.397305612031854     
   GDM::        grad.step =  -0.315833285325284     
   ------- Leaving GDM -- hopefully with a step in the right direction! --------
 
   10    -667.9976821917      4.07E-01  Gap = 0.00 eV  Descent step
 
   ------------------- Entering Geometric Direct Minimization ------------------
   GDM::trust : actual energy change is       -0.488716509673054     
   GDM::trust : predicted energy change was   -0.161121684385175     
   GDM::trust : updated trust radius is        0.330000000000000     
   GDM:         diagonal hessian shift is      0.000000000000000E+000
   GDM::PreWSS: input subspace size is                 11
   GDM::PreWSS: working subspace size set to           11
   GDM::PrEWSS: # of linearly dependent vectors =            0
   GDM::PrEWSS: Max dev from orthonormality =   3.592260169882344E-012
   GDM::BFGS:   lowest Hinv e-value    0.202803782645266     
   GDM::BFGS:   highest Hinv e-value    4.19519098696797     
   GDM::      : max scaling in EWCs is          2.82842712474619     
   GDM::      : max rotation in step is       -0.199403183349199     
   GDM::        grad.step =  -0.248591808257926     
   ------- Leaving GDM -- hopefully with a step in the right direction! --------
 
   11    -668.4863987014      2.15E-01  Gap = 0.00 eV  Descent step
 
   ------------------- Entering Geometric Direct Minimization ------------------
   GDM::trust : actual energy change is       -0.275419575052865     
   GDM::trust : predicted energy change was   -0.207613629814427     
   GDM::trust : updated trust radius is        0.330000000000000     
   GDM:         diagonal hessian shift is      0.000000000000000E+000
   GDM::PreWSS: input subspace size is                 12
   GDM::PreWSS: working subspace size set to           12
   GDM::PrEWSS: # of linearly dependent vectors =            0
   GDM::PrEWSS: Max dev from orthonormality =   2.755922226538310E-012
   GDM::BFGS:   lowest Hinv e-value    8.568146886548071E-002
   GDM::BFGS:   highest Hinv e-value    3.73276903523942     
   GDM::      : max scaling in EWCs is          2.82842712474619     
   GDM::      : max rotation in step is        0.496168614351440     
   GDM::        grad.step =  -0.349517317481475     
   ------- Leaving GDM -- hopefully with a step in the right direction! --------
 
   12    -668.7618182764      5.63E-01  Gap = 0.00 eV  Descent step
 
   ------------------- Entering Geometric Direct Minimization ------------------
   GDM::trust : actual energy change is        0.641182287567744     
   GDM::trust : predicted energy change was   -0.577284810577646     
   GDM::trust : updated trust radius is        0.108900000000000     
   GDM::search:  On step            1 .  The current bracket is:
       left   : x =  0.0000E+00, e =      -668.7618182764, g = -0.4388E+00
       current: x =  0.7965E+00, e =      -668.1206359889, g =  0.1410E+01
       right  : x =  0.1000E+04, e =      1000.0000000000, g =  0.1000E+04
       next   : x =  0.1405E+00
   GDM::      : max rotation in step is        8.752376715543364E-002
   ------- Leaving GDM -- hopefully with a step in the right direction! --------
 
   13    -668.1206359889      6.06E-02  Gap = 0.00 eV  Line search: overstep
 
   ------------------- Entering Geometric Direct Minimization ------------------
   GDM::trust : actual energy change is       -9.367766564901103E-002
   GDM::trust : predicted energy change was   -0.577284810577646     
   GDM::trust : updated trust radius is        0.108900000000000     
   GDM:         diagonal hessian shift is      0.000000000000000E+000
   GDM::PreWSS: input subspace size is                 13
   GDM::PreWSS: working subspace size set to           13
   GDM::PrEWSS: # of linearly dependent vectors =            0
   GDM::PrEWSS: Max dev from orthonormality =   2.219823283522437E-012
   GDM::BFGS:   lowest Hinv e-value    0.140061204010454     
   GDM::BFGS:   highest Hinv e-value    4.01574685122934     
   GDM::      : max scaling in EWCs is          2.82842712474619     
   GDM::      : max rotation in step is       -0.106042540790936     
   GDM::        grad.step =  -6.820232450078381E-002
   ------- Leaving GDM -- hopefully with a step in the right direction! --------
 
   14    -668.8554959421      2.28E-01  Gap = 0.00 eV  Descent step
 
   ------------------- Entering Geometric Direct Minimization ------------------
   GDM::trust : actual energy change is       -9.736691590228475E-002
   GDM::trust : predicted energy change was   -2.621684252487265E-002
   GDM::trust : updated trust radius is        0.330000000000000     
   GDM:         diagonal hessian shift is      0.000000000000000E+000
   GDM::PreWSS: input subspace size is                 14
   GDM::PreWSS: working subspace size set to           14
   GDM::PrEWSS: # of linearly dependent vectors =            0
   GDM::PrEWSS: Max dev from orthonormality =   1.076774086561372E-012
   GDM::BFGS:   lowest Hinv e-value    0.136521357190825     
   GDM::BFGS:   highest Hinv e-value    4.52586082455760     
   GDM::      : max scaling in EWCs is          2.82842712474619     
   GDM::      : max rotation in step is        0.264198899986840     
   GDM::        grad.step =  -0.174747568896123     
   ------- Leaving GDM -- hopefully with a step in the right direction! --------
 
   15    -668.9528628580      1.60E-01  Gap = 0.00 eV  Descent step
 
   ------------------- Entering Geometric Direct Minimization ------------------
   GDM::trust : actual energy change is       -0.296856068008992     
   GDM::trust : predicted energy change was   -0.185549328539193     
   GDM::trust : updated trust radius is        0.330000000000000     
   GDM:         diagonal hessian shift is      0.000000000000000E+000
   GDM::PreWSS: input subspace size is                 15
   GDM::PreWSS: working subspace size set to           15
   GDM::PrEWSS: # of linearly dependent vectors =            0
   GDM::PrEWSS: Max dev from orthonormality =   3.808155180085038E-012
   GDM::BFGS:   lowest Hinv e-value    0.241413382498951     
   GDM::BFGS:   highest Hinv e-value    4.66798320135957     
   GDM::      : max scaling in EWCs is          2.82842712474619     
   GDM::      : max rotation in step is       -0.394510071667113     
   GDM::        grad.step =  -0.176122808619116     
   ------- Leaving GDM -- hopefully with a step in the right direction! --------
 
   16    -669.2497189260      2.26E-01  Gap = 0.00 eV  Descent step
 
   ------------------- Entering Geometric Direct Minimization ------------------
   GDM::trust : actual energy change is        0.309083610088578     
   GDM::trust : predicted energy change was   -0.181557451337120     
   GDM::trust : updated trust radius is        0.108900000000000     
   GDM::search:  On step            1 .  The current bracket is:
       left   : x =  0.0000E+00, e =      -669.2497189260, g = -0.2112E+00
       current: x =  0.8338E+00, e =      -668.9406353159, g =  0.7341E+00
       right  : x =  0.1000E+04, e =      1000.0000000000, g =  0.1000E+04
       next   : x =  0.1513E+00
   GDM::      : max rotation in step is       -7.160068289657068E-002
   ------- Leaving GDM -- hopefully with a step in the right direction! --------
 
   17    -668.9406353159      3.56E-02  Gap = 0.00 eV  Line search: overstep
 
   ------------------- Entering Geometric Direct Minimization ------------------
   GDM::trust : actual energy change is       -5.227770277360833E-002
   GDM::trust : predicted energy change was   -0.181557451337120     
   GDM::trust : updated trust radius is        0.108900000000000     
   GDM:         diagonal hessian shift is      0.000000000000000E+000
   GDM::PreWSS: input subspace size is                 16
   GDM::PreWSS: working subspace size set to           16
   GDM::PrEWSS: # of linearly dependent vectors =            0
   GDM::PrEWSS: Max dev from orthonormality =   2.962748102408597E-012
   GDM::BFGS:   lowest Hinv e-value    7.997501954641198E-002
   GDM::BFGS:   highest Hinv e-value    4.99325763014520     
   GDM::      : max scaling in EWCs is          2.82842712474619     
   GDM::      : max rotation in step is       -7.573992983667673E-002
   GDM::        grad.step =  -4.728804150837717E-002
   ------- Leaving GDM -- hopefully with a step in the right direction! --------
 
   18    -669.3019966288      1.61E-01  Gap = 0.00 eV  Descent step
 
   ------------------- Entering Geometric Direct Minimization ------------------
   GDM::trust : actual energy change is       -8.580338547267274E-002
   GDM::trust : predicted energy change was   -1.998923053996365E-002
   GDM::trust : updated trust radius is        0.330000000000000     
   GDM:         diagonal hessian shift is      0.000000000000000E+000
   GDM::PreWSS: input subspace size is                 17
   GDM::PreWSS: working subspace size set to           17
   GDM::PrEWSS: # of linearly dependent vectors =            0
   GDM::PrEWSS: Max dev from orthonormality =   1.660241388812267E-012
   GDM::BFGS:   lowest Hinv e-value    8.774293629622934E-002
   GDM::BFGS:   highest Hinv e-value    6.68567788629425     
   GDM::      : max scaling in EWCs is          2.82842712474619     
   GDM::      : max rotation in step is        0.481132078192122     
   GDM::        grad.step =  -0.145754029920299     
   ------- Leaving GDM -- hopefully with a step in the right direction! --------
 
   19    -669.3878000143      2.28E-01  Gap = 0.00 eV  Descent step
 
   ------------------- Entering Geometric Direct Minimization ------------------
   GDM::trust : actual energy change is        0.338556980751491     
   GDM::trust : predicted energy change was   -0.198297710918407     
   GDM::trust : updated trust radius is        0.108900000000000     
   GDM::search:  On step            1 .  The current bracket is:
       left   : x =  0.0000E+00, e =      -669.3878000143, g = -0.1874E+00
       current: x =  0.7779E+00, e =      -669.0492430335, g =  0.7760E+00
       right  : x =  0.1000E+04, e =      1000.0000000000, g =  0.1000E+04
       next   : x =  0.1171E+00
   GDM::      : max rotation in step is        7.239866302353594E-002
   ------- Leaving GDM -- hopefully with a step in the right direction! --------
 
   20    -669.0492430335      3.42E-02  Gap = 0.00 eV  Line search: overstep
 
   ------------------- Entering Geometric Direct Minimization ------------------
   GDM::trust : actual energy change is       -3.577945299332441E-002
   GDM::trust : predicted energy change was   -0.198297710918407     
   GDM::trust : updated trust radius is        0.108900000000000     
   GDM:         diagonal hessian shift is      0.000000000000000E+000
   GDM::PreWSS: input subspace size is                 18
   GDM::PreWSS: working subspace size set to           18
   GDM::PrEWSS: # of linearly dependent vectors =            0
   GDM::PrEWSS: Max dev from orthonormality =   1.848032143980660E-012
   GDM::BFGS:   lowest Hinv e-value    7.639214542723387E-002
   GDM::BFGS:   highest Hinv e-value    5.42287964245955     
   GDM::      : max scaling in EWCs is          2.82842712474619     
   GDM::      : max rotation in step is        6.566063428647059E-002
   GDM::        grad.step =  -4.336699410995447E-002
   ------- Leaving GDM -- hopefully with a step in the right direction! --------
 
   21    -669.4235794672      1.90E-01  Gap = 0.00 eV  Descent step
 
   ------------------- Entering Geometric Direct Minimization ------------------
   GDM::trust : actual energy change is       -6.597896959362970E-002
   GDM::trust : predicted energy change was   -2.521916152349390E-002
   GDM::trust : updated trust radius is        0.330000000000000     
   GDM:         diagonal hessian shift is      0.000000000000000E+000
   GDM::PreWSS: input subspace size is                 19
   GDM::PreWSS: working subspace size set to           18
   GDM::PrEWSS: # of linearly dependent vectors =            0
   GDM::PrEWSS: Max dev from orthonormality =   1.006875138820362E-012
   GDM::BFGS:   lowest Hinv e-value    5.425419058650657E-002
   GDM::BFGS:   highest Hinv e-value    6.73096821681516     
   GDM::      : max scaling in EWCs is          2.82842712474619     
   GDM::      : max rotation in step is        0.548248788547916     
   GDM::        grad.step =  -0.193987749641465     
   ------- Leaving GDM -- hopefully with a step in the right direction! --------
 
   22    -669.4895584368      3.45E-01  Gap = 0.00 eV  Descent step
 
   ------------------- Entering Geometric Direct Minimization ------------------
   GDM::trust : actual energy change is        0.851745059698601     
   GDM::trust : predicted energy change was   -0.692673834188588     
   GDM::trust : updated trust radius is        0.108900000000000     
   GDM::search:  On step            1 .  The current bracket is:
       left   : x =  0.0000E+00, e =      -669.4895584368, g = -0.2367E+00
       current: x =  0.8194E+00, e =      -668.6378133771, g =  0.1243E+01
       right  : x =  0.1000E+04, e =      1000.0000000000, g =  0.1000E+04
       next   : x =  0.8194E-01
   GDM::      : max rotation in step is        5.482487885479161E-002
   ------- Leaving GDM -- hopefully with a step in the right direction! --------
 
   23    -668.6378133771      5.31E-02  Gap = 62.38 eV  Line search: overstep
 
   ------------------- Entering Geometric Direct Minimization ------------------
   GDM::trust : actual energy change is       -2.870442522805661E-002
   GDM::trust : predicted energy change was   -0.692673834188588     
   GDM::trust : updated trust radius is        0.108900000000000     
   GDM:         diagonal hessian shift is      0.000000000000000E+000
   GDM::PreWSS: input subspace size is                 19
   GDM::PreWSS: working subspace size set to           18
   GDM::PrEWSS: # of linearly dependent vectors =            0
   GDM::PrEWSS: Max dev from orthonormality =   6.087491621897811E-013
   GDM::BFGS:   lowest Hinv e-value    7.341469573983340E-002
   GDM::BFGS:   highest Hinv e-value    8.01833835726433     
   GDM::      : max scaling in EWCs is          2.82842712474619     
   GDM::      : max rotation in step is        0.102011351986116     
   GDM::        grad.step =  -4.371694136769849E-002
   ------- Leaving GDM -- hopefully with a step in the right direction! --------
 
   24    -669.5182628621      2.79E-01  Gap = 62.38 eV  Descent step
 
   ------------------- Entering Geometric Direct Minimization ------------------
   GDM::trust : actual energy change is       -9.205488263103234E-002
   GDM::trust : predicted energy change was   -1.361208197423387E-002
   GDM::trust : updated trust radius is        0.330000000000000     
   GDM:         diagonal hessian shift is      0.000000000000000E+000
   GDM::PreWSS: input subspace size is                 19
   GDM::PreWSS: working subspace size set to           18
   GDM::PrEWSS: # of linearly dependent vectors =            0
   GDM::PrEWSS: Max dev from orthonormality =   7.880432417728400E-013
   GDM::BFGS:   lowest Hinv e-value   -0.263204489595557     
   GDM::BFGS:   highest Hinv e-value    17.4229400420657     
   GDM::BFGS:   rebuilding Hinv to be positive definite
   GDM::      : max scaling in EWCs is          2.82842712474619     
   GDM::      : max rotation in step is        0.365100157448934     
   GDM::        grad.step =  -0.177506680158152     
   ------- Leaving GDM -- hopefully with a step in the right direction! --------
 
   25    -669.6103177447      3.77E-01  Gap = 62.38 eV  Descent step
 
   ------------------- Entering Geometric Direct Minimization ------------------
   GDM::trust : actual energy change is       -0.348856030035677     
   GDM::trust : predicted energy change was   -0.224830149616628     
   GDM::trust : updated trust radius is        0.330000000000000     
   GDM:         diagonal hessian shift is      0.000000000000000E+000
   GDM::PreWSS: input subspace size is                 19
   GDM::PreWSS: working subspace size set to           18
   GDM::PrEWSS: # of linearly dependent vectors =            0
   GDM::PrEWSS: Max dev from orthonormality =   2.986721980846596E-012
   GDM::BFGS:   lowest Hinv e-value    0.109930979676648     
   GDM::BFGS:   highest Hinv e-value    23.2621279784785     
   GDM::      : max scaling in EWCs is          2.82842712474619     
   GDM::      : max rotation in step is        0.547241856283297     
   GDM::        grad.step =  -0.213350022560827     
   ------- Leaving GDM -- hopefully with a step in the right direction! --------
 
   26    -669.9591737747      3.79E-01  Gap = 62.38 eV  Descent step
 
   ------------------- Entering Geometric Direct Minimization ------------------
   GDM::trust : actual energy change is       -0.264954699898453     
   GDM::trust : predicted energy change was   -0.203587261676412     
   GDM::trust : updated trust radius is        0.330000000000000     
   GDM:         diagonal hessian shift is      0.000000000000000E+000
   GDM::PreWSS: input subspace size is                 19
   GDM::PreWSS: working subspace size set to           18
   GDM::PrEWSS: # of linearly dependent vectors =            0
   GDM::PrEWSS: Max dev from orthonormality =   8.330905409970057E-013
   GDM::BFGS:   lowest Hinv e-value    0.171009275341116     
   GDM::BFGS:   highest Hinv e-value    24.2106999375532     
   GDM::      : max scaling in EWCs is          2.82842712474619     
   GDM::      : max rotation in step is       -0.440665973443589     
   GDM::        grad.step =  -0.155991092483604     
   ------- Leaving GDM -- hopefully with a step in the right direction! --------
 
   27    -670.2241284746      2.91E-01  Gap = 66.11 eV  Descent step
 
   ------------------- Entering Geometric Direct Minimization ------------------
   GDM::trust : actual energy change is        0.154002777272126     
   GDM::trust : predicted energy change was   -0.221148364077712     
   GDM::trust : updated trust radius is        0.108900000000000     
   GDM::search:  On step            1 .  The current bracket is:
       left   : x =  0.0000E+00, e =      -670.2241284746, g = -0.2480E+00
       current: x =  0.6289E+00, e =      -670.0701256974, g =  0.4295E+00
       right  : x =  0.1000E+04, e =      1000.0000000000, g =  0.1000E+04
       next   : x =  0.1582E+00
   GDM::      : max rotation in step is       -0.110873106413334     
   ------- Leaving GDM -- hopefully with a step in the right direction! --------
 
   28    -670.0701256974      9.87E-02  Gap = 62.38 eV  Line search: overstep
 
   ------------------- Entering Geometric Direct Minimization ------------------
   GDM::trust : actual energy change is       -4.871585840544412E-002
   GDM::trust : predicted energy change was   -0.221148364077712     
   GDM::trust : updated trust radius is        0.108900000000000     
   GDM:         diagonal hessian shift is      0.000000000000000E+000
   GDM::PreWSS: input subspace size is                 19
   GDM::PreWSS: working subspace size set to           18
   GDM::PrEWSS: # of linearly dependent vectors =            0
   GDM::PrEWSS: Max dev from orthonormality =   1.086158940566406E-012
   GDM::BFGS:   lowest Hinv e-value    0.134112541147649     
   GDM::BFGS:   highest Hinv e-value    23.9134450411708     
   GDM::      : max scaling in EWCs is          2.82842712474619     
   GDM::      : max rotation in step is       -0.251901236887025     
   GDM::        grad.step =  -3.869564235715505E-002
   ------- Leaving GDM -- hopefully with a step in the right direction! --------
 
   29    -670.2728443330      2.91E-01  Gap = 62.38 eV  Descent step
 
   ------------------- Entering Geometric Direct Minimization ------------------
   GDM::trust : actual energy change is       -4.646140130660115E-002
   GDM::trust : predicted energy change was   -2.324615977717390E-002
   GDM::trust : updated trust radius is        0.330000000000000     
   GDM:         diagonal hessian shift is      0.000000000000000E+000
   GDM::PreWSS: input subspace size is                 19
   GDM::PreWSS: working subspace size set to           18
   GDM::PrEWSS: # of linearly dependent vectors =            0
   GDM::PrEWSS: Max dev from orthonormality =   1.366018409498793E-012
   GDM::BFGS:   lowest Hinv e-value    0.105693710761804     
   GDM::BFGS:   highest Hinv e-value    26.4401347157853     
   GDM::trust : dogleg step length is          0.330000000000000     
   GDM::      : max scaling in EWCs is          2.82842712474619     
   GDM::      : max rotation in step is        0.217461388826430     
   GDM::        grad.step =  -9.296732596582827E-002
   ------- Leaving GDM -- hopefully with a step in the right direction! --------
 
   30    -670.3193057343      1.06E-01  Gap = 62.38 eV  Dog-leg BFGS step
 
   ------------------- Entering Geometric Direct Minimization ------------------
   GDM::trust : actual energy change is        0.251986599619272     
   GDM::trust : predicted energy change was   -0.327767673862531     
   GDM::trust : updated trust radius is        0.108900000000000     
   GDM::search:  On step            1 .  The current bracket is:
       left   : x =  0.0000E+00, e =      -670.3193057343, g = -0.2028E+00
       current: x =  0.4585E+00, e =      -670.0673191347, g =  0.7625E+00
       right  : x =  0.1000E+04, e =      1000.0000000000, g =  0.1000E+04
       next   : x =  0.6178E-01
   GDM::      : max rotation in step is        2.930362915238214E-002
   ------- Leaving GDM -- hopefully with a step in the right direction! --------
 
   31    -670.0673191347      6.57E-02  Gap = 62.38 eV  Line search: overstep
 
   ------------------- Entering Geometric Direct Minimization ------------------
   GDM::trust : actual energy change is       -1.759412923615855E-002
   GDM::trust : predicted energy change was   -0.327767673862531     
   GDM::trust : updated trust radius is        0.108900000000000     
   GDM:         diagonal hessian shift is      0.000000000000000E+000
   GDM::PreWSS: input subspace size is                 19
   GDM::PreWSS: working subspace size set to           18
   GDM::PrEWSS: # of linearly dependent vectors =            0
   GDM::PrEWSS: Max dev from orthonormality =   1.497850454779126E-012
   GDM::BFGS:   lowest Hinv e-value    0.141813851809656     
   GDM::BFGS:   highest Hinv e-value    23.4593589289242     
   GDM::      : max scaling in EWCs is          2.82842712474619     
   GDM::      : max rotation in step is       -0.139978502030936     
   GDM::        grad.step =  -1.913500061715181E-002
   ------- Leaving GDM -- hopefully with a step in the right direction! --------
 
   32    -670.3368998636      7.99E-02  Gap = 62.38 eV  Descent step
 
   ------------------- Entering Geometric Direct Minimization ------------------
   GDM::trust : actual energy change is       -2.588166299460681E-002
   GDM::trust : predicted energy change was   -1.659932839338868E-002
   GDM::trust : updated trust radius is        0.330000000000000     
   GDM:         diagonal hessian shift is      0.000000000000000E+000
   GDM::PreWSS: input subspace size is                 19
   GDM::PreWSS: working subspace size set to           18
   GDM::PrEWSS: # of linearly dependent vectors =            0
   GDM::PrEWSS: Max dev from orthonormality =   1.209185529482681E-012
   GDM::BFGS:   lowest Hinv e-value    0.128578206614030     
   GDM::BFGS:   highest Hinv e-value    24.3213113355796     
   GDM::      : max scaling in EWCs is          2.82842712474619     
   GDM::      : max rotation in step is        0.146670742539169     
   GDM::        grad.step =  -1.686816964558720E-002
   ------- Leaving GDM -- hopefully with a step in the right direction! --------
 
   33    -670.3627815266      5.50E-02  Gap = 62.38 eV  Normal BFGS step
 
   ------------------- Entering Geometric Direct Minimization ------------------
   GDM::trust : actual energy change is        2.933924020680934E-002
   GDM::trust : predicted energy change was   -2.530225446838080E-002
   GDM::trust : updated trust radius is        0.108900000000000     
   GDM::search:  On step            1 .  The current bracket is:
       left   : x =  0.0000E+00, e =      -670.3627815266, g = -0.6198E-01
       current: x =  0.2722E+00, e =      -670.3334422864, g =  0.1741E+00
       right  : x =  0.1000E+04, e =      1000.0000000000, g =  0.1000E+04
       next   : x =  0.4968E-01
   GDM::      : max rotation in step is        2.677132277158605E-002
   ------- Leaving GDM -- hopefully with a step in the right direction! --------
 
   34    -670.3334422864      2.23E-02  Gap = 62.38 eV  Line search: overstep
 
   ------------------- Entering Geometric Direct Minimization ------------------
   GDM::trust : actual energy change is       -4.116558810778770E-003
   GDM::trust : predicted energy change was   -2.530225446838080E-002
   GDM::trust : updated trust radius is        0.108900000000000     
   GDM:         diagonal hessian shift is      0.000000000000000E+000
   GDM::PreWSS: input subspace size is                 19
   GDM::PreWSS: working subspace size set to           18
   GDM::PrEWSS: # of linearly dependent vectors =            0
   GDM::PrEWSS: Max dev from orthonormality =   1.729142870554590E-012
   GDM::BFGS:   lowest Hinv e-value    0.119940784602475     
   GDM::BFGS:   highest Hinv e-value    22.2860707955343     
   GDM::trust : dogleg step length is          0.108900000000000     
   GDM::      : max scaling in EWCs is          2.82842712474619     
   GDM::      : max rotation in step is        5.813184389430620E-002
   GDM::        grad.step =  -8.242258266303988E-003
   ------- Leaving GDM -- hopefully with a step in the right direction! --------
 
   35    -670.3668980854      2.88E-02  Gap = 62.38 eV  Dog-leg BFGS step
 
   ------------------- Entering Geometric Direct Minimization ------------------
   GDM::trust : actual energy change is        9.703680816414817E-003
   GDM::trust : predicted energy change was   -1.740684383414810E-002
   GDM::trust : updated trust radius is        3.593700000000000E-002
   GDM::search:  On step            1 .  The current bracket is:
       left   : x =  0.0000E+00, e =      -670.3668980854, g = -0.5793E-01
       current: x =  0.1423E+00, e =      -670.3571944046, g =  0.1249E+00
       right  : x =  0.1000E+04, e =      1000.0000000000, g =  0.1000E+04
       next   : x =  0.3267E-01
   GDM::      : max rotation in step is        1.334947334505131E-002
   ------- Leaving GDM -- hopefully with a step in the right direction! --------
 
   36    -670.3571944046      9.42E-03  Gap = 62.38 eV  Line search: overstep
 
   ------------------- Entering Geometric Direct Minimization ------------------
   GDM::trust : actual energy change is       -2.393342014556765E-003
   GDM::trust : predicted energy change was   -1.740684383414810E-002
   GDM::trust : updated trust radius is        3.593700000000000E-002
   GDM:         diagonal hessian shift is      0.000000000000000E+000
   GDM::PreWSS: input subspace size is                 19
   GDM::PreWSS: working subspace size set to           18
   GDM::PrEWSS: # of linearly dependent vectors =            0
   GDM::PrEWSS: Max dev from orthonormality =   2.395098008811658E-012
   GDM::BFGS:   lowest Hinv e-value    0.145011655036365     
   GDM::BFGS:   highest Hinv e-value    17.9062152117672     
   GDM::      : max scaling in EWCs is          2.82842712474619     
   GDM::      : max rotation in step is       -6.945690227468199E-002
   GDM::        grad.step =  -2.247215713030473E-003
   ------- Leaving GDM -- hopefully with a step in the right direction! --------
 
   37    -670.3692914274      4.27E-02  Gap = 62.38 eV  Descent step
 
   ------------------- Entering Geometric Direct Minimization ------------------
   GDM::trust : actual energy change is        3.655855463193802E-004
   GDM::trust : predicted energy change was   -3.127297945697478E-003
   GDM::trust : updated trust radius is        0.108900000000000     
   GDM::search:  On step            1 .  The current bracket is:
       left   : x =  0.0000E+00, e =      -670.3692914274, g = -0.2754E-01
       current: x =  0.8161E-01, e =      -670.3689258419, g =  0.3119E-01
       right  : x =  0.1000E+04, e =      1000.0000000000, g =  0.1000E+04
       next   : x =  0.3509E-01
   GDM::      : max rotation in step is       -2.986921443250646E-002
   ------- Leaving GDM -- hopefully with a step in the right direction! --------
 
   38    -670.3689258419      5.07E-03  Gap = 62.38 eV  Line search: overstep
 
   ------------------- Entering Geometric Direct Minimization ------------------
   GDM::trust : actual energy change is       -1.021719178766034E-003
   GDM::trust : predicted energy change was   -3.127297945697478E-003
   GDM::trust : updated trust radius is        0.108900000000000     
   GDM:         diagonal hessian shift is      0.000000000000000E+000
   GDM::PreWSS: input subspace size is                 19
   GDM::PreWSS: working subspace size set to           18
   GDM::PrEWSS: # of linearly dependent vectors =            0
   GDM::PrEWSS: Max dev from orthonormality =   2.378906099886891E-012
   GDM::BFGS:   lowest Hinv e-value    0.115458942677912     
   GDM::BFGS:   highest Hinv e-value    18.2819286536870     
   GDM::trust : dogleg step length is          0.108900000000000     
   GDM::      : max scaling in EWCs is          2.82842712474619     
   GDM::      : max rotation in step is        5.437634403197878E-002
   GDM::        grad.step =  -3.028677938166489E-003
   ------- Leaving GDM -- hopefully with a step in the right direction! --------
 
   39    -670.3703131466      2.49E-02  Gap = 62.38 eV  Dog-leg BFGS step
 
   ------------------- Entering Geometric Direct Minimization ------------------
   GDM::trust : actual energy change is        6.304151120730239E-003
   GDM::trust : predicted energy change was   -4.615834299537240E-003
   GDM::trust : updated trust radius is        3.593700000000000E-002
   GDM::search:  On step            1 .  The current bracket is:
       left   : x =  0.0000E+00, e =      -670.3703131466, g = -0.2194E-01
       current: x =  0.1381E+00, e =      -670.3640089955, g =  0.6724E-01
       right  : x =  0.1000E+04, e =      1000.0000000000, g =  0.1000E+04
       next   : x =  0.2240E-01
   GDM::      : max rotation in step is        8.823071358561538E-003
   ------- Leaving GDM -- hopefully with a step in the right direction! --------
 
   40    -670.3640089955      6.26E-03  Gap = 62.38 eV  Line search: overstep
 
   ------------------- Entering Geometric Direct Minimization ------------------
   GDM::trust : actual energy change is       -6.549738893681933E-004
   GDM::trust : predicted energy change was   -4.615834299537240E-003
   GDM::trust : updated trust radius is        3.593700000000000E-002
   GDM:         diagonal hessian shift is      0.000000000000000E+000
   GDM::PreWSS: input subspace size is                 19
   GDM::PreWSS: working subspace size set to           18
   GDM::PrEWSS: # of linearly dependent vectors =            0
   GDM::PrEWSS: Max dev from orthonormality =   8.251704874950860E-012
   GDM::BFGS:   lowest Hinv e-value    0.130678324323763     
   GDM::BFGS:   highest Hinv e-value    6.91702390586176     
   GDM::      : max scaling in EWCs is          2.82842712474619     
   GDM::      : max rotation in step is        3.064125223411416E-002
   GDM::        grad.step =  -1.556145095127974E-003
   ------- Leaving GDM -- hopefully with a step in the right direction! --------
 
   41    -670.3709681205      1.32E-02  Gap = 62.38 eV  Descent step
 
   ------------------- Entering Geometric Direct Minimization ------------------
   GDM::trust : actual energy change is        1.999230820274533E-003
   GDM::trust : predicted energy change was   -3.092125350432201E-003
   GDM::trust : updated trust radius is        0.108900000000000     
   GDM::search:  On step            1 .  The current bracket is:
       left   : x =  0.0000E+00, e =      -670.3709681205, g = -0.2748E-01
       current: x =  0.5662E-01, e =      -670.3689688896, g =  0.6355E-01
       right  : x =  0.1000E+04, e =      1000.0000000000, g =  0.1000E+04
       next   : x =  0.1239E-01
   GDM::      : max rotation in step is        6.705653003684938E-003
   ------- Leaving GDM -- hopefully with a step in the right direction! --------
 
   42    -670.3689688896      5.32E-03  Gap = 62.38 eV  Line search: overstep
 
   ------------------- Entering Geometric Direct Minimization ------------------
   GDM::trust : actual energy change is       -4.396903602810198E-004
   GDM::trust : predicted energy change was   -3.092125350432201E-003
   GDM::trust : updated trust radius is        0.108900000000000     
   GDM:         diagonal hessian shift is      0.000000000000000E+000
   GDM::PreWSS: input subspace size is                 19
   GDM::PreWSS: working subspace size set to           18
   GDM::PrEWSS: # of linearly dependent vectors =            0
   GDM::PrEWSS: Max dev from orthonormality =   6.599915058913552E-012
   GDM::BFGS:   lowest Hinv e-value    0.120707104770817     
   GDM::BFGS:   highest Hinv e-value    5.15802947837820     
   GDM::trust : dogleg step length is          0.108900000000000     
   GDM::      : max scaling in EWCs is          2.82842712474619     
   GDM::      : max rotation in step is       -0.118317303925608     
   GDM::        grad.step =  -2.948631561496012E-003
   ------- Leaving GDM -- hopefully with a step in the right direction! --------
 
   43    -670.3714078108      1.98E-02  Gap = 62.38 eV  Dog-leg BFGS step
 
   ------------------- Entering Geometric Direct Minimization ------------------
   GDM::trust : actual energy change is        5.342475140196257E-003
   GDM::trust : predicted energy change was   -4.340344083287212E-003
   GDM::trust : updated trust radius is        3.593700000000000E-002
   GDM::search:  On step            1 .  The current bracket is:
       left   : x =  0.0000E+00, e =      -670.3714078108, g = -0.1693E-01
       current: x =  0.1741E+00, e =      -670.3660653357, g =  0.4796E-01
       right  : x =  0.1000E+04, e =      1000.0000000000, g =  0.1000E+04
       next   : x =  0.3096E-01
   GDM::      : max rotation in step is       -2.103905721988583E-002
   ------- Leaving GDM -- hopefully with a step in the right direction! --------
 
   44    -670.3660653357      3.65E-03  Gap = 62.38 eV  Line search: overstep
 
   ------------------- Entering Geometric Direct Minimization ------------------
   GDM::trust : actual energy change is       -6.972519724968151E-004
   GDM::trust : predicted energy change was   -4.340344083287212E-003
   GDM::trust : updated trust radius is        3.593700000000000E-002
   GDM:         diagonal hessian shift is      0.000000000000000E+000
   GDM::PreWSS: input subspace size is                 19
   GDM::PreWSS: working subspace size set to           18
   GDM::PrEWSS: # of linearly dependent vectors =            0
   GDM::PrEWSS: Max dev from orthonormality =   1.634800628202981E-011
   GDM::BFGS:   lowest Hinv e-value    0.116404453124237     
   GDM::BFGS:   highest Hinv e-value    4.01761563306406     
   GDM::trust : dogleg step length is          3.593700000000000E-002
   GDM::      : max scaling in EWCs is          2.82842712474619     
   GDM::      : max rotation in step is       -3.304569854180929E-002
   GDM::        grad.step =  -5.949131744779042E-004
   ------- Leaving GDM -- hopefully with a step in the right direction! --------
 
   45    -670.3721050628      6.26E-03  Gap = 62.38 eV  Dog-leg BFGS step
 
   ------------------- Entering Geometric Direct Minimization ------------------
   GDM::trust : actual energy change is        8.932087098401098E-006
   GDM::trust : predicted energy change was   -8.641470847787654E-004
   GDM::trust : updated trust radius is        1.185921000000000E-002
   GDM::search:  On step            1 .  The current bracket is:
       left   : x =  0.0000E+00, e =      -670.3721050628, g = -0.1019E-01
       current: x =  0.5839E-01, e =      -670.3720961307, g =  0.1016E-01
       right  : x =  0.1000E+04, e =      1000.0000000000, g =  0.1000E+04
       next   : x =  0.2876E-01
   GDM::      : max rotation in step is       -1.627844306588415E-002
   ------- Leaving GDM -- hopefully with a step in the right direction! --------
 
   46    -670.3720961307      1.79E-03  Gap = 62.38 eV  Line search: overstep
 
   ------------------- Entering Geometric Direct Minimization ------------------
   GDM::trust : actual energy change is       -2.926209724591899E-004
   GDM::trust : predicted energy change was   -8.641470847787654E-004
   GDM::trust : updated trust radius is        1.185921000000000E-002
   GDM:         diagonal hessian shift is      0.000000000000000E+000
   GDM::PreWSS: input subspace size is                 19
   GDM::PreWSS: working subspace size set to           18
   GDM::PrEWSS: # of linearly dependent vectors =            0
   GDM::PrEWSS: Max dev from orthonormality =   9.055001540247964E-012
   GDM::BFGS:   lowest Hinv e-value    0.116659938889677     
   GDM::BFGS:   highest Hinv e-value    2.52674726117817     
   GDM::      : max scaling in EWCs is          2.82842712474619     
   GDM::      : max rotation in step is       -1.343537108173055E-002
   GDM::        grad.step =  -1.588260961053036E-004
   ------- Leaving GDM -- hopefully with a step in the right direction! --------
 
   47    -670.3723976838      5.36E-03  Gap = 62.38 eV  Descent step
 
   ------------------- Entering Geometric Direct Minimization ------------------
   GDM::trust : actual energy change is        4.063326343839435E-005
   GDM::trust : predicted energy change was   -3.118984158957617E-004
   GDM::trust : updated trust radius is        0.108900000000000     
   GDM::search:  On step            1 .  The current bracket is:
       left   : x =  0.0000E+00, e =      -670.3723976838, g = -0.7806E-02
       current: x =  0.2035E-01, e =      -670.3723570505, g =  0.9727E-02
       right  : x =  0.1000E+04, e =      1000.0000000000, g =  0.1000E+04
       next   : x =  0.8101E-02
   GDM::      : max rotation in step is       -5.349178758818428E-003
   ------- Leaving GDM -- hopefully with a step in the right direction! --------
 
   48    -670.3723570505      2.32E-03  Gap = 62.38 eV  Line search: overstep
 
   ------------------- Entering Geometric Direct Minimization ------------------
   GDM::trust : actual energy change is       -6.938290243851952E-005
   GDM::trust : predicted energy change was   -3.118984158957617E-004
   GDM::trust : updated trust radius is        0.108900000000000     
   GDM:         diagonal hessian shift is      0.000000000000000E+000
   GDM::PreWSS: input subspace size is                 19
   GDM::PreWSS: working subspace size set to           18
   GDM::PrEWSS: # of linearly dependent vectors =            0
   GDM::PrEWSS: Max dev from orthonormality =   5.644844314200981E-011
   GDM::BFGS:   lowest Hinv e-value    0.119718088558099     
   GDM::BFGS:   highest Hinv e-value    2.52960995384119     
   GDM::      : max scaling in EWCs is          2.82842712474619     
   GDM::      : max rotation in step is       -2.483812546946366E-002
   GDM::        grad.step =  -1.193152191258924E-004
   ------- Leaving GDM -- hopefully with a step in the right direction! --------
 
   49    -670.3724670667      5.17E-03  Gap = 62.38 eV  Normal BFGS step
 
   ------------------- Entering Geometric Direct Minimization ------------------
   GDM::trust : actual energy change is       -8.369883107661735E-005
   GDM::trust : predicted energy change was   -1.789728286888387E-004
   GDM::trust : updated trust radius is        0.330000000000000     
   GDM:         diagonal hessian shift is      0.000000000000000E+000
   GDM::PreWSS: input subspace size is                 19
   GDM::PreWSS: working subspace size set to           18
   GDM::PrEWSS: # of linearly dependent vectors =            0
   GDM::PrEWSS: Max dev from orthonormality =   6.097210930589014E-011
   GDM::BFGS:   lowest Hinv e-value    0.117818099935544     
   GDM::BFGS:   highest Hinv e-value    2.76659627961117     
   GDM::      : max scaling in EWCs is          2.82842712474619     
   GDM::      : max rotation in step is       -9.306830806646916E-003
   GDM::        grad.step =  -4.910329307004569E-005
   ------- Leaving GDM -- hopefully with a step in the right direction! --------
 
   50    -670.3725507655      3.77E-03  Gap = 62.38 eV  Normal BFGS step
 
   ------------------- Entering Geometric Direct Minimization ------------------
   GDM::trust : actual energy change is       -3.384025740160723E-005
   GDM::trust : predicted energy change was   -7.365493960506852E-005
   GDM::trust : updated trust radius is        0.330000000000000     
   GDM:         diagonal hessian shift is      0.000000000000000E+000
   GDM::PreWSS: input subspace size is                 19
   GDM::PreWSS: working subspace size set to           18
   GDM::PrEWSS: # of linearly dependent vectors =            0
   GDM::PrEWSS: Max dev from orthonormality =   1.906276525520667E-011
   GDM::BFGS:   lowest Hinv e-value    0.123284930658701     
   GDM::BFGS:   highest Hinv e-value    2.55374757393606     
   GDM::      : max scaling in EWCs is          2.82842712474619     
   GDM::      : max rotation in step is        4.191206911681452E-003
   GDM::        grad.step =  -2.781087885859139E-005
   ------- Leaving GDM -- hopefully with a step in the right direction! --------
 
   51    -670.3725846058      3.19E-03  Gap = 62.38 eV  Normal BFGS step
 
   ------------------- Entering Geometric Direct Minimization ------------------
   GDM::trust : actual energy change is       -2.717945767471974E-005
   GDM::trust : predicted energy change was   -4.171631828788709E-005
   GDM::trust : updated trust radius is        0.330000000000000     
   GDM:         diagonal hessian shift is      0.000000000000000E+000
   GDM::PreWSS: input subspace size is                 19
   GDM::PreWSS: working subspace size set to           18
   GDM::PrEWSS: # of linearly dependent vectors =            0
   GDM::PrEWSS: Max dev from orthonormality =   6.373873651099871E-012
   GDM::BFGS:   lowest Hinv e-value    0.125388937690355     
   GDM::BFGS:   highest Hinv e-value    2.73811157548174     
   GDM::      : max scaling in EWCs is          2.82842712474619     
   GDM::      : max rotation in step is       -6.309412943508211E-003
   GDM::        grad.step =  -9.389127364432812E-006
   ------- Leaving GDM -- hopefully with a step in the right direction! --------
 
   52    -670.3726117852      1.10E-03  Gap = 62.38 eV  Normal BFGS step
 
   ------------------- Entering Geometric Direct Minimization ------------------
   GDM::trust : actual energy change is       -6.851958119113988E-006
   GDM::trust : predicted energy change was   -1.408369104664922E-005
   GDM::trust : updated trust radius is        0.330000000000000     
   GDM:         diagonal hessian shift is      0.000000000000000E+000
   GDM::PreWSS: input subspace size is                 19
   GDM::PreWSS: working subspace size set to           18
   GDM::PrEWSS: # of linearly dependent vectors =            0
   GDM::PrEWSS: Max dev from orthonormality =   1.740906030445188E-011
   GDM::BFGS:   lowest Hinv e-value    0.124823820886080     
   GDM::BFGS:   highest Hinv e-value    3.84431836943325     
   GDM::      : max scaling in EWCs is          2.82842712474619     
   GDM::      : max rotation in step is       -4.486245330768585E-003
   GDM::        grad.step =  -3.355994294416207E-006
   ------- Leaving GDM -- hopefully with a step in the right direction! --------
 
   53    -670.3726186372      6.93E-04  Gap = 0.00 eV  Normal BFGS step
 
   ------------------- Entering Geometric Direct Minimization ------------------
   GDM::trust : actual energy change is       -2.796947683236795E-006
   GDM::trust : predicted energy change was   -5.033991441624311E-006
   GDM::trust : updated trust radius is        0.330000000000000     
   GDM:         diagonal hessian shift is      0.000000000000000E+000
   GDM::PreWSS: input subspace size is                 19
   GDM::PreWSS: working subspace size set to           18
   GDM::PrEWSS: # of linearly dependent vectors =            0
   GDM::PrEWSS: Max dev from orthonormality =   1.023533341415472E-011
   GDM::BFGS:   lowest Hinv e-value    0.119207217675342     
   GDM::BFGS:   highest Hinv e-value    3.81692131565538     
   GDM::      : max scaling in EWCs is          2.82842712474619     
   GDM::      : max rotation in step is       -2.875673248509062E-004
   GDM::        grad.step =  -3.168818713138913E-007
   ------- Leaving GDM -- hopefully with a step in the right direction! --------
 
   54    -670.3726214341      5.83E-04  Gap = 62.38 eV  Normal BFGS step
 
   ------------------- Entering Geometric Direct Minimization ------------------
   GDM::trust : actual energy change is       -2.618222652017721E-007
   GDM::trust : predicted energy change was   -4.753228069708371E-007
   GDM::trust : updated trust radius is        0.330000000000000     
   GDM:         diagonal hessian shift is      0.000000000000000E+000
   GDM::PreWSS: input subspace size is                 19
   GDM::PreWSS: working subspace size set to           18
   GDM::PrEWSS: # of linearly dependent vectors =            0
   GDM::PrEWSS: Max dev from orthonormality =   6.254933203331259E-011
   GDM::BFGS:   lowest Hinv e-value    0.127624565912157     
   GDM::BFGS:   highest Hinv e-value    3.82136388252701     
   GDM::      : max scaling in EWCs is          2.82842712474619     
   GDM::      : max rotation in step is       -7.486027358002190E-005
   GDM::        grad.step =  -2.893522772456921E-008
   ------- Leaving GDM -- hopefully with a step in the right direction! --------
 
   55    -670.3726216960      7.41E-05  Gap = 62.38 eV  Normal BFGS step
 
   ------------------- Entering Geometric Direct Minimization ------------------
   GDM::trust : actual energy change is       -2.170190782635473E-008
   GDM::trust : predicted energy change was   -4.340284158685383E-008
   GDM::trust : updated trust radius is        0.330000000000000     
   GDM:         diagonal hessian shift is      0.000000000000000E+000
   GDM::PreWSS: input subspace size is                 19
   GDM::PreWSS: working subspace size set to           18
   GDM::PrEWSS: # of linearly dependent vectors =            0
   GDM::PrEWSS: Max dev from orthonormality =   9.156625804807028E-011
   GDM::BFGS:   lowest Hinv e-value    0.125401715300519     
   GDM::BFGS:   highest Hinv e-value    3.83870909449317     
   GDM::      : max scaling in EWCs is          2.82842712474619     
   GDM::      : max rotation in step is       -7.478323933008675E-005
   GDM::        grad.step =  -2.994153110317187E-009
   ------- Leaving GDM -- hopefully with a step in the right direction! --------
 
   56    -670.3726217177      4.42E-05  Gap = 62.38 eV  Normal BFGS step
 
   ------------------- Entering Geometric Direct Minimization ------------------
   GDM::trust : actual energy change is       -2.639126250869595E-009
   GDM::trust : predicted energy change was   -4.491229665475780E-009
   GDM::trust : updated trust radius is        0.330000000000000     
   GDM:         diagonal hessian shift is      0.000000000000000E+000
   GDM::PreWSS: input subspace size is                 19
   GDM::PreWSS: working subspace size set to           18
   GDM::PrEWSS: # of linearly dependent vectors =            0
   GDM::PrEWSS: Max dev from orthonormality =   2.244353175528957E-010
   GDM::BFGS:   lowest Hinv e-value    0.124782713669965     
   GDM::BFGS:   highest Hinv e-value    3.86804533987023     
   GDM::      : max scaling in EWCs is          2.82842712474619     
   GDM::      : max rotation in step is       -6.092999637922422E-006
   GDM::        grad.step =  -1.915741736104618E-010
   ------- Leaving GDM -- hopefully with a step in the right direction! --------
 
   57    -670.3726217203      6.82E-06  Gap = 62.38 eV  Normal BFGS step
 
   ------------------- Entering Geometric Direct Minimization ------------------
   GDM::trust : actual energy change is       -1.333546606474556E-010
   GDM::trust : predicted energy change was   -2.873612604156926E-010
   GDM::trust : updated trust radius is        0.330000000000000     
   GDM:         diagonal hessian shift is      0.000000000000000E+000
   GDM::PreWSS: input subspace size is                 19
   GDM::PreWSS: working subspace size set to           18
   GDM::PrEWSS: # of linearly dependent vectors =            0
   GDM::PrEWSS: Max dev from orthonormality =   1.379804048795563E-010
   GDM::BFGS:   lowest Hinv e-value    0.127478036774893     
   GDM::BFGS:   highest Hinv e-value    3.89298289010018     
   GDM::      : max scaling in EWCs is          2.82842712474619     
   GDM::      : max rotation in step is        3.030972262152923E-006
   GDM::        grad.step =  -2.788693227028600E-011
   ------- Leaving GDM -- hopefully with a step in the right direction! --------
 
   58    -670.3726217204      1.84E-06  Gap = 62.38 eV  Normal BFGS step
 
   ------------------- Entering Geometric Direct Minimization ------------------
   GDM::trust : actual energy change is       -2.432898327242583E-011
   GDM::trust : predicted energy change was   -4.183039840542899E-011
   GDM::trust : updated trust radius is        0.330000000000000     
   GDM:         diagonal hessian shift is      0.000000000000000E+000
   GDM::PreWSS: input subspace size is                 19
   GDM::PreWSS: working subspace size set to           18
   GDM::PrEWSS: # of linearly dependent vectors =            0
   GDM::PrEWSS: Max dev from orthonormality =   9.785697252517878E-011
   GDM::BFGS:   lowest Hinv e-value    0.124474879503515     
   GDM::BFGS:   highest Hinv e-value    3.91492507552280     
   GDM::      : max scaling in EWCs is          2.82842712474619     
   GDM::      : max rotation in step is       -1.081400561152314E-006
   GDM::        grad.step =  -2.778335273535511E-012
   ------- Leaving GDM -- hopefully with a step in the right direction! --------
 
   59    -670.3726217204      1.19E-06  Gap = 62.38 eV  Normal BFGS step
 
   ------------------- Entering Geometric Direct Minimization ------------------
   GDM::trust : actual energy change is       -2.501110429875553E-012
   GDM::trust : predicted energy change was   -4.167502910303266E-012
   GDM::trust : updated trust radius is        0.330000000000000     
   GDM:         diagonal hessian shift is      0.000000000000000E+000
   GDM::PreWSS: input subspace size is                 19
   GDM::PreWSS: working subspace size set to           18
   GDM::PrEWSS: # of linearly dependent vectors =            0
   GDM::PrEWSS: Max dev from orthonormality =   1.118540780831179E-010
   GDM::BFGS:   lowest Hinv e-value    0.126155210951233     
   GDM::BFGS:   highest Hinv e-value    3.97510544443196     
   GDM::      : max scaling in EWCs is          2.82842712474619     
   GDM::      : max rotation in step is       -3.570687125621504E-007
   GDM::        grad.step =  -7.560356417934315E-013
   ------- Leaving GDM -- hopefully with a step in the right direction! --------
 
   60    -670.3726217205      2.18E-07  Gap = 62.38 eV  Normal BFGS step
 
   ------------------- Entering Geometric Direct Minimization ------------------
   GDM::trust : actual energy change is       -1.136868377216160E-013
   GDM::trust : predicted energy change was   -1.134053462690147E-012
   GDM::trust : updated trust radius is        0.330000000000000     
   GDM:         diagonal hessian shift is      0.000000000000000E+000
   GDM::PreWSS: input subspace size is                 19
   GDM::PreWSS: working subspace size set to           15
   GDM::PrEWSS: # of linearly dependent vectors =            0
   GDM::PrEWSS: Max dev from orthonormality =   8.757085334654136E-012
   GDM::BFGS:   lowest Hinv e-value    0.152739256086027     
   GDM::BFGS:   highest Hinv e-value    4.51925684244271     
   GDM::      : max scaling in EWCs is          2.82842712474619     
   GDM::      : max rotation in step is        3.063173246272671E-007
   GDM::        grad.step =  -4.412726644632953E-014
   ------- Leaving GDM -- hopefully with a step in the right direction! --------
 
   61    -670.3726217205      9.07E-08  Gap = 62.38 eV  Normal BFGS step
 
   ------------------- Entering Geometric Direct Minimization ------------------
   GDM::trust : actual energy change is       -3.410605131648481E-013
   GDM::trust : predicted energy change was   -6.619089966949427E-014
   GDM::trust : updated trust radius is        0.330000000000000     
   GDM:         diagonal hessian shift is      0.000000000000000E+000
   GDM::PreWSS: input subspace size is                 16
   GDM::PreWSS: working subspace size set to           15
   GDM::PrEWSS: # of linearly dependent vectors =            0
   GDM::PrEWSS: Max dev from orthonormality =   7.545034041989140E-012
   GDM::BFGS:   lowest Hinv e-value    0.151597394443290     
   GDM::BFGS:   highest Hinv e-value    4.80814407591035     
   GDM::      : max scaling in EWCs is          2.82842712474619     
   GDM::      : max rotation in step is        8.449342564277629E-008
   GDM::        grad.step =  -1.139707449296422E-014
   ------- Leaving GDM -- hopefully with a step in the right direction! --------
 
   62    -670.3726217205      5.11E-08  Gap = 62.38 eV  Normal BFGS step
 
   ------------------- Entering Geometric Direct Minimization ------------------
   GDM::trust : actual energy change is        9.094947017729282E-013
   GDM::trust : predicted energy change was   -1.709561173944632E-014
   GDM::trust : updated trust radius is        0.108900000000000     
   GDM::WARNING energy changes are now smaller than effective accuracy.
   GDM::        calculation will continue, but THRESH should be increased
   GDM::        or SCF_CONVERGENCE decreased.
   GDM::        effective_thresh =   2.600000000000000E-010
   GDM:         diagonal hessian shift is      0.000000000000000E+000
   GDM::PreWSS: input subspace size is                 16
   GDM::PreWSS: working subspace size set to           16
   GDM::PrEWSS: # of linearly dependent vectors =            1
   GDM::PrEWSS: Max dev from orthonormality =   3.755148969553090E-012
   GDM::BFGS:   lowest Hinv e-value    0.132273345695423     
   GDM::BFGS:   highest Hinv e-value    4.52501476351650     
   GDM::      : max scaling in EWCs is          2.82842712474619     
   GDM::      : max rotation in step is       -2.781851048460584E-007
   GDM::        grad.step =  -1.682172015592251E-014
   ------- Leaving GDM -- hopefully with a step in the right direction! --------
 
   63    -670.3726217205      1.34E-07  Gap = 62.38 eV  Normal BFGS step
 
   ------------------- Entering Geometric Direct Minimization ------------------
   GDM::trust : actual energy change is       -5.684341886080801E-013
   GDM::trust : predicted energy change was   -2.523258023388376E-014
   GDM::trust : updated trust radius is        0.330000000000000     
   GDM:         diagonal hessian shift is      0.000000000000000E+000
   GDM::PreWSS: input subspace size is                 17
   GDM::PreWSS: working subspace size set to           17
   GDM::PrEWSS: # of linearly dependent vectors =            2
   GDM::PrEWSS: Max dev from orthonormality =   7.883568797772966E-012
   GDM::BFGS:   lowest Hinv e-value    0.130114714905088     
   GDM::BFGS:   highest Hinv e-value    3.97378726036891     
   GDM::      : max scaling in EWCs is          2.82842712474619     
   GDM::      : max rotation in step is        1.437195621800709E-007
   GDM::        grad.step =  -1.295418254333692E-014
   ------- Leaving GDM -- hopefully with a step in the right direction! --------
 
   64    -670.3726217205      7.59E-08  Gap = 62.38 eV  Normal BFGS step
 
   ------------------- Entering Geometric Direct Minimization ------------------
   GDM::trust : actual energy change is        1.250555214937776E-012
   GDM::trust : predicted energy change was   -1.943127381500538E-014
   GDM::trust : updated trust radius is        0.108900000000000     
   GDM::WARNING energy changes are now smaller than effective accuracy.
   GDM::        calculation will continue, but THRESH should be increased
   GDM::        or SCF_CONVERGENCE decreased.
   GDM::        effective_thresh =   2.600000000000000E-010
   GDM:         diagonal hessian shift is      0.000000000000000E+000
   GDM::PreWSS: input subspace size is                 18
   GDM::PreWSS: working subspace size set to           14
   GDM::PrEWSS: # of linearly dependent vectors =            0
   GDM::PrEWSS: Max dev from orthonormality =   2.082064382014082E-011
   GDM::BFGS:   lowest Hinv e-value    0.131900508627943     
   GDM::BFGS:   highest Hinv e-value    4.52043898253619     
   GDM::      : max scaling in EWCs is          2.82842712474619     
   GDM::      : max rotation in step is        9.268412200644588E-009
   GDM::        grad.step =  -5.498561851205658E-016
   ------- Leaving GDM -- hopefully with a step in the right direction! --------
 
   65    -670.3726217205      1.21E-08  Gap = 62.38 eV  Normal BFGS step
 
   ------------------- Entering Geometric Direct Minimization ------------------
   GDM::trust : actual energy change is       -6.821210263296962E-013
   GDM::trust : predicted energy change was   -8.247842776808490E-016
   GDM::trust : updated trust radius is        0.330000000000000     
   GDM:         diagonal hessian shift is      0.000000000000000E+000
   GDM::PreWSS: input subspace size is                 15
   GDM::PreWSS: working subspace size set to           13
   GDM::PrEWSS: # of linearly dependent vectors =            0
   GDM::PrEWSS: Max dev from orthonormality =   1.087130038768258E-011
   GDM::BFGS:   lowest Hinv e-value    0.129367577817735     
   GDM::BFGS:   highest Hinv e-value    2.88713424484787     
   GDM::      : max scaling in EWCs is          2.82842712474619     
   GDM::      : max rotation in step is       -1.286014856895681E-008
   GDM::        grad.step =  -1.313578118204591E-016
   ------- Leaving GDM -- hopefully with a step in the right direction! --------
 
   66    -670.3726217205      5.56E-09 Convergence criterion met
 ---------------------------------------
 One-Electron    Energy = -1382.2076070435
 Total Coulomb   Energy =   546.2513529230
 Alpha Exchange  Energy =    -5.4892947876
 Beta  Exchange  Energy =    -5.4892947876
 DFT   Exchange  Energy =   -43.9160171349
 DFT Correlation Energy =    -2.4475771618
 Nuclear Repu.   Energy =   222.9258162720
 Nuclear Attr.   Energy = -2028.0205471546
 Kinetic         Energy =   645.8129401112
 SCF time:  CPU 239.96 s  wall 24.07 s
 SCF   energy in the final basis set = -670.3726217205
 Total energy in the final basis set = -670.3726217205
 
 --------------------------------------------------------------
 
                    Orbital Energies (a.u.)
 --------------------------------------------------------------
 
 Alpha MOs
 -- Occupied --
-88.987 -19.266 -19.144 -19.134  -8.052  -6.018  -6.016  -6.003
 -2.036  -1.288  -1.282  -1.235  -1.067  -0.874  -0.837  -0.718
 -0.501  -0.472  -0.465  -0.367  -0.355  -0.347  -0.324  -0.301
 -0.280  -0.277
 -- Virtual --
 -0.236  -0.105  -0.066  -0.033  -0.001   0.009   0.013   0.021
  0.034   0.059   0.059   0.066   0.077   0.112   0.116   0.124
  0.164   0.170   0.200   0.201   0.208   0.216   0.219   0.236
  0.242   0.257   0.268   0.281   0.286   0.287   0.334   0.367
  0.409   0.458   0.475   0.480   0.590   0.688   0.705   0.713
  0.739   0.778   0.836   1.014   1.125   1.133   1.161   1.188
  1.195   1.207   1.248   1.254   1.323   1.623   1.697   1.716
[...]
 
    8    -670.4730297087      5.02E-05  Gap = 80.58 eV  Normal BFGS step
 
   ------------------- Entering Geometric Direct Minimization ------------------
   GDM::trust : actual energy change is       -5.006768333259970E-009
   GDM::trust : predicted energy change was   -3.266610227597433E-008
   GDM::trust : updated trust radius is        0.330000000000000     
   GDM:         diagonal hessian shift is      0.000000000000000E+000
   GDM::PreWSS: input subspace size is                  7
   GDM::PreWSS: working subspace size set to            7
   GDM::PrEWSS: # of linearly dependent vectors =            4
   GDM::PrEWSS: Max dev from orthonormality =   5.205097117211288E-010
   GDM::BFGS:   lowest Hinv e-value    0.222625545776294     
   GDM::BFGS:   highest Hinv e-value    1.28054372443290     
   GDM::      : max scaling in EWCs is          2.56547296540753     
   GDM::      : max rotation in step is        3.182727070577979E-005
   GDM::        grad.step =  -1.529017302596832E-008
   ------- Leaving GDM -- hopefully with a step in the right direction! --------
 
    9    -670.4730297137      5.33E-05  Gap = 80.58 eV  Normal BFGS step
 
   ------------------- Entering Geometric Direct Minimization ------------------
   GDM::trust : actual energy change is       -7.998210094228853E-009
   GDM::trust : predicted energy change was   -2.293525953895248E-008
   GDM::trust : updated trust radius is        0.330000000000000     
   GDM:         diagonal hessian shift is      0.000000000000000E+000
   GDM::PreWSS: input subspace size is                  8
   GDM::PreWSS: working subspace size set to            8
   GDM::PrEWSS: # of linearly dependent vectors =            5
   GDM::PrEWSS: Max dev from orthonormality =   7.955754041666374E-010
   GDM::BFGS:   lowest Hinv e-value    0.224483268348977     
   GDM::BFGS:   highest Hinv e-value    1.20334364251175     
   GDM::      : max scaling in EWCs is          2.56596982720851     
   GDM::      : max rotation in step is        1.301153942186814E-005
   GDM::        grad.step =  -4.011424231648961E-009
   ------- Leaving GDM -- hopefully with a step in the right direction! --------
 
   10    -670.4730297217      2.91E-05  Gap = 80.58 eV  Normal BFGS step
 
   ------------------- Entering Geometric Direct Minimization ------------------
   GDM::trust : actual energy change is       -3.315676622150932E-009
   GDM::trust : predicted energy change was   -6.017136347473440E-009
   GDM::trust : updated trust radius is        0.330000000000000     
   GDM:         diagonal hessian shift is      0.000000000000000E+000
   GDM::PreWSS: input subspace size is                  9
   GDM::PreWSS: working subspace size set to            9
   GDM::PrEWSS: # of linearly dependent vectors =            7
   GDM::PrEWSS: Max dev from orthonormality =   8.401127016277599E-013
   GDM::BFGS:   lowest Hinv e-value    0.225538727990189     
   GDM::BFGS:   highest Hinv e-value    1.21863522075742     
   GDM::      : max scaling in EWCs is          2.56567314756483     
   GDM::      : max rotation in step is       -6.282109649405586E-006
   GDM::        grad.step =  -3.414548299035812E-010
   ------- Leaving GDM -- hopefully with a step in the right direction! --------
 
   11    -670.4730297250      8.42E-06  Gap = 80.58 eV  Normal BFGS step
 
   ------------------- Entering Geometric Direct Minimization ------------------
   GDM::trust : actual energy change is       -1.389253156958148E-010
   GDM::trust : predicted energy change was   -5.121822448553719E-010
   GDM::trust : updated trust radius is        0.330000000000000     
   GDM:         diagonal hessian shift is      0.000000000000000E+000
   GDM::PreWSS: input subspace size is                 10
   GDM::PreWSS: working subspace size set to           10
   GDM::PrEWSS: # of linearly dependent vectors =            8
   GDM::PrEWSS: Max dev from orthonormality =   1.542524788455957E-012
   GDM::BFGS:   lowest Hinv e-value    0.224745033605667     
   GDM::BFGS:   highest Hinv e-value    1.20305536424601     
   GDM::      : max scaling in EWCs is          2.56583778336557     
   GDM::      : max rotation in step is        2.766939048575602E-006
   GDM::        grad.step =  -1.213583878993309E-010
   ------- Leaving GDM -- hopefully with a step in the right direction! --------
 
   12    -670.4730297252      5.69E-06  Gap = 80.58 eV  Normal BFGS step
 
   ------------------- Entering Geometric Direct Minimization ------------------
   GDM::trust : actual energy change is       -9.777068044058979E-011
   GDM::trust : predicted energy change was   -1.820375818489963E-010
   GDM::trust : updated trust radius is        0.330000000000000     
   GDM:         diagonal hessian shift is      0.000000000000000E+000
   GDM::PreWSS: input subspace size is                 11
   GDM::PreWSS: working subspace size set to           11
   GDM::PrEWSS: # of linearly dependent vectors =            9
   GDM::PrEWSS: Max dev from orthonormality =   1.062205531865423E-011
   GDM::BFGS:   lowest Hinv e-value    0.225802030954410     
   GDM::BFGS:   highest Hinv e-value    1.20469582942690     
   GDM::      : max scaling in EWCs is          2.56574860754487     
   GDM::      : max rotation in step is        5.579787872813998E-007
   GDM::        grad.step =  -1.089259363457433E-011
   ------- Leaving GDM -- hopefully with a step in the right direction! --------
 
   13    -670.4730297253      1.12E-06  Gap = 80.58 eV  Normal BFGS step
 
   ------------------- Entering Geometric Direct Minimization ------------------
   GDM::trust : actual energy change is       -8.867573342286050E-012
   GDM::trust : predicted energy change was   -1.633889045186149E-011
   GDM::trust : updated trust radius is        0.330000000000000     
   GDM:         diagonal hessian shift is      0.000000000000000E+000
   GDM::PreWSS: input subspace size is                 12
   GDM::PreWSS: working subspace size set to           12
   GDM::PrEWSS: # of linearly dependent vectors =           10
   GDM::PrEWSS: Max dev from orthonormality =   3.750680321878974E-012
   GDM::BFGS:   lowest Hinv e-value    0.223790884455963     
   GDM::BFGS:   highest Hinv e-value    1.20425785137003     
   GDM::      : max scaling in EWCs is          2.56576106698415     
   GDM::      : max rotation in step is        1.535810040712115E-007
   GDM::        grad.step =  -7.628789493223847E-013
   ------- Leaving GDM -- hopefully with a step in the right direction! --------
 
   14    -670.4730297253      3.07E-07  Gap = 80.58 eV  Normal BFGS step
 
   ------------------- Entering Geometric Direct Minimization ------------------
   GDM::trust : actual energy change is       -1.250555214937776E-012
   GDM::trust : predicted energy change was   -1.144318423983577E-012
   GDM::trust : updated trust radius is        0.330000000000000     
   GDM:         diagonal hessian shift is      0.000000000000000E+000
   GDM::PreWSS: input subspace size is                 13
   GDM::PreWSS: working subspace size set to           13
   GDM::PrEWSS: # of linearly dependent vectors =           11
   GDM::PrEWSS: Max dev from orthonormality =   1.328400583977540E-011
   GDM::BFGS:   lowest Hinv e-value    0.223648316507157     
   GDM::BFGS:   highest Hinv e-value    1.19930760661758     
   GDM::      : max scaling in EWCs is          2.56576166845112     
   GDM::      : max rotation in step is        5.691606643417630E-008
   GDM::        grad.step =  -2.487892788196525E-014
   ------- Leaving GDM -- hopefully with a step in the right direction! --------
 
   15    -670.4730297253      3.15E-08  Gap = 80.58 eV  Normal BFGS step
 
   ------------------- Entering Geometric Direct Minimization ------------------
   GDM::trust : actual energy change is        1.136868377216160E-012
   GDM::trust : predicted energy change was   -3.731839182294787E-014
   GDM::trust : updated trust radius is        0.108900000000000     
   GDM::WARNING energy changes are now smaller than effective accuracy.
   GDM::        calculation will continue, but THRESH should be increased
   GDM::        or SCF_CONVERGENCE decreased.
   GDM::        effective_thresh =   7.955754041666374E-010
   GDM:         diagonal hessian shift is      0.000000000000000E+000
   GDM::PreWSS: input subspace size is                 14
   GDM::PreWSS: working subspace size set to           14
   GDM::PrEWSS: # of linearly dependent vectors =           12
   GDM::PrEWSS: Max dev from orthonormality =   1.845983782500227E-011
   GDM::BFGS:   lowest Hinv e-value    0.224329843835718     
   GDM::BFGS:   highest Hinv e-value    1.21901644820308     
   GDM::      : max scaling in EWCs is          2.56576134495718     
   GDM::      : max rotation in step is        1.829701039465649E-008
   GDM::        grad.step =  -4.468343892698098E-015
   ------- Leaving GDM -- hopefully with a step in the right direction! --------
 
   16    -670.4730297253      2.13E-08  Gap = 80.58 eV  Normal BFGS step
 
   ------------------- Entering Geometric Direct Minimization ------------------
   GDM::trust : actual energy change is        1.023181539494544E-012
   GDM::trust : predicted energy change was   -6.702515839047145E-015
   GDM::trust : updated trust radius is        0.108900000000000     
   GDM::WARNING energy changes are now smaller than effective accuracy.
   GDM::        calculation will continue, but THRESH should be increased
   GDM::        or SCF_CONVERGENCE decreased.
   GDM::        effective_thresh =   7.955754041666374E-010
   GDM:         diagonal hessian shift is      0.000000000000000E+000
   GDM::PreWSS: input subspace size is                 15
   GDM::PreWSS: working subspace size set to           13
   GDM::PrEWSS: # of linearly dependent vectors =           10
   GDM::PrEWSS: Max dev from orthonormality =   3.283781579987988E-011
   GDM::BFGS:   lowest Hinv e-value    0.226951115618394     
   GDM::BFGS:   highest Hinv e-value    1.33189066186957     
   GDM::      : max scaling in EWCs is          2.56576133382009     
   GDM::      : max rotation in step is        8.046703573780911E-009
   GDM::        grad.step =  -1.795756122553651E-016
   ------- Leaving GDM -- hopefully with a step in the right direction! --------
 
   17    -670.4730297253      3.42E-09 Convergence criterion met
 ---------------------------------------
 One-Electron    Energy = -1415.8550785120
 Total Coulomb   Energy =   563.0392524738
 Alpha Exchange  Energy =    -5.4915434614
 Beta  Exchange  Energy =    -5.4915434614
 DFT   Exchange  Energy =   -43.8528899558
 DFT Correlation Energy =    -2.4486885869
 Nuclear Repu.   Energy =   239.6274617784
 Nuclear Attr.   Energy = -2060.7879785397
 Kinetic         Energy =   644.9329000277
 SCF time:  CPU 61.33 s  wall 6.14 s
 SCF   energy in the final basis set = -670.4730297253
 Total energy in the final basis set = -670.4730297253
 
 --------------------------------------------------------------
 
                    Orbital Energies (a.u.)
 --------------------------------------------------------------
 
 Alpha MOs
 -- Occupied --
-88.964 -19.193 -19.193 -19.137  -8.026  -5.993  -5.990  -5.976
 -2.102  -1.322  -1.306  -1.304  -1.019  -0.964  -0.862  -0.673
 -0.470  -0.444  -0.423  -0.373  -0.368  -0.357  -0.334  -0.315
 -0.310  -0.225
 -- Virtual --
 -0.149  -0.118  -0.088  -0.060  -0.041  -0.016  -0.013   0.004
  0.018   0.027   0.048   0.070   0.081   0.086   0.092   0.100
  0.150   0.162   0.176   0.196   0.196   0.197   0.221   0.223
  0.235   0.248   0.257   0.262   0.289   0.290   0.304   0.343
  0.365   0.454   0.495   0.502   0.555   0.605   0.711   0.737
  0.749   0.829   0.931   1.024   1.145   1.168   1.192   1.198
  1.200   1.233   1.258   1.287   1.293   1.673   1.705   1.756
  1.763   1.768   1.781   1.807   1.811   1.822   1.827   1.841
  1.843   1.891   1.938   2.003   2.103   2.266   2.396  13.010
 --------------------------------------------------------------
 
          Ground-State Mulliken Net Atomic Charges

     Atom                 Charge (a.u.)
  ----------------------------------------
      1 Zr                    1.579340
      2 O                    -0.512434
      3 O                    -0.757540
      4 O                    -0.757567
      5 S                     0.448202
  ----------------------------------------
  Sum of atomic charges =     0.000000

 -----------------------------------------------------------------
                    Cartesian Multipole Moments
 -----------------------------------------------------------------
    Charge (ESU x 10^10)
                 0.0000
    Dipole Moment (Debye)
         X      -0.3556      Y      -0.1522      Z       0.0000
       Tot       0.3868
    Quadrupole Moments (Debye-Ang)
        XX     -63.3045     XY      -3.5762     YY     -56.5986
        XZ       0.0000     YZ       0.0000     ZZ     -46.2745
    Octopole Moments (Debye-Ang^2)
       XXX     -33.5102    XXY     -23.5105    XYY      -2.6001
       YYY       3.2150    XXZ       0.0000    XYZ       0.0000
       YYZ       0.0000    XZZ       9.1616    YZZ       3.0508
       ZZZ       0.0000
    Hexadecapole Moments (Debye-Ang^3)
      XXXX    -712.0103   XXXY    -135.7918   XXYY    -167.2543
      XYYY     -98.1317   YYYY    -275.5061   XXXZ       0.0000
      XXYZ       0.0000   XYYZ       0.0000   YYYZ       0.0000
      XXZZ    -120.8033   XYZZ     -35.1277   YYZZ     -54.6169
      XZZZ       0.0000   YZZZ       0.0000   ZZZZ     -53.4003
 -----------------------------------------------------------------
 Calculating analytic gradient of the SCF energy
 Gradient of SCF Energy
            1           2           3           4           5
    1   0.0000769   0.0002948  -0.0002305   0.0000528  -0.0001940
    2  -0.0002641   0.0001665   0.0001684   0.0000466  -0.0001174
    3  -0.0000000  -0.0000000   0.0000000  -0.0000000   0.0000000
 Max gradient component =       2.948E-04
 RMS gradient           =       1.479E-04
 Gradient time:  CPU 11.65 s  wall 1.74 s
 Geometry Optimization Parameters
   NAtoms,    NIC,     NZ,  NCons,   NDum,   NFix, NCnnct, MaxDiis
        5      27       0       0       0       0       0       0

 Cartesian Hessian Update
 Hessian Updated using BFGS Update


** GEOMETRY OPTIMIZATION IN CARTESIAN COORDINATES **
   Searching for a Minimum

   Optimization Cycle:  31

                       Coordinates (Angstroms)
     ATOM                X               Y               Z
      1  Zr        0.7321096748    0.3381803447    0.0000000000
      2  O         2.3757321677    1.0509268856    0.0000000000
      3  O        -1.2318248776    0.9029215140    0.0000000000
      4  O        -0.1945800654   -1.4815236663    0.0000000000
      5  S        -1.7791068995   -0.7526950780    0.0000000000
   Point Group: c1    Number of degrees of freedom:     9


   Energy is   -670.473029725


 Translations and Rotations Projected Out of Hessian

  7 Hessian modes will be used to form the next step
  Hessian Eigenvalues:
     0.009470    0.128962    0.203378    0.367699    0.430445    0.806290
     1.396192

 Minimum Search - Taking Simple RFO Step
 Searching for Lamda that Minimizes Along All modes
 Value Taken    Lamda =   0.00000000
 Step Taken.  Stepsize is  0.001506

                             Maximum     Tolerance    Cnvgd?
         Gradient           0.000295      0.000300     YES
         Displacement       0.000928      0.001200     YES
         Energy change     -0.000002      0.000001      NO


                       Distance Matrix (Angstroms)
             Zr(  1)   O (  2)   O (  3)   O (  4)
   O (  2)  1.791508
   O (  3)  2.043519  3.610592
   O (  4)  2.042077  3.608297  2.600280
   S (  5)  2.737922  4.529430  1.743727  1.744109
 
 Final energy is   -670.473029725272     


 ******************************
 **  OPTIMIZATION CONVERGED  **
 ******************************

                       Coordinates (Angstroms)
     ATOM                X               Y               Z
      1  Zr        0.7321096748    0.3381803447    0.0000000000
      2  O         2.3757321677    1.0509268856    0.0000000000
      3  O        -1.2318248776    0.9029215140    0.0000000000
      4  O        -0.1945800654   -1.4815236663    0.0000000000
      5  S        -1.7791068995   -0.7526950780    0.0000000000

Z-matrix Print:
$molecule
0 1
Zr
O  1 1.791508
O  1 2.042077 2 140.431269
S  3 1.744109 1 92.286780 2 -180.000000 0
O  4 1.743727 3 96.408962 1 0.000000 0
$end

 
 --------------------------------------------------------------
 
                    Orbital Energies (a.u.)
 --------------------------------------------------------------
 
 Alpha MOs
 -- Occupied --
-88.964 -19.193 -19.193 -19.137  -8.026  -5.993  -5.990  -5.976
 -2.102  -1.322  -1.306  -1.304  -1.019  -0.964  -0.862  -0.673
 -0.470  -0.444  -0.423  -0.373  -0.368  -0.357  -0.334  -0.315
 -0.310  -0.225
 -- Virtual --
 -0.149  -0.118  -0.088  -0.060  -0.041  -0.016  -0.013   0.004
  0.018   0.027   0.048   0.070   0.081   0.086   0.092   0.100
  0.150   0.162   0.176   0.196   0.196   0.197   0.221   0.223
  0.235   0.248   0.257   0.262   0.289   0.290   0.304   0.343
  0.365   0.454   0.495   0.502   0.555   0.605   0.711   0.737
  0.749   0.829   0.931   1.024   1.145   1.168   1.192   1.198
  1.200   1.233   1.258   1.287   1.293   1.673   1.705   1.756
  1.763   1.768   1.781   1.807   1.811   1.822   1.827   1.841
  1.843   1.891   1.938   2.003   2.103   2.266   2.396  13.010
 --------------------------------------------------------------
 
          Ground-State Mulliken Net Atomic Charges

     Atom                 Charge (a.u.)
  ----------------------------------------
      1 Zr                    1.579340
      2 O                    -0.512434
      3 O                    -0.757540
      4 O                    -0.757567
      5 S                     0.448202
  ----------------------------------------
  Sum of atomic charges =     0.000000

 -----------------------------------------------------------------
                    Cartesian Multipole Moments
 -----------------------------------------------------------------
    Charge (ESU x 10^10)
                 0.0000
    Dipole Moment (Debye)
         X      -0.3556      Y      -0.1522      Z       0.0000
       Tot       0.3868
    Quadrupole Moments (Debye-Ang)
        XX     -63.3045     XY      -3.5762     YY     -56.5986
        XZ       0.0000     YZ       0.0000     ZZ     -46.2745
    Octopole Moments (Debye-Ang^2)
       XXX     -33.5102    XXY     -23.5105    XYY      -2.6001
       YYY       3.2150    XXZ       0.0000    XYZ       0.0000
       YYZ       0.0000    XZZ       9.1616    YZZ       3.0508
       ZZZ       0.0000
    Hexadecapole Moments (Debye-Ang^3)
      XXXX    -712.0103   XXXY    -135.7918   XXYY    -167.2543
      XYYY     -98.1317   YYYY    -275.5061   XXXZ       0.0000
      XXYZ       0.0000   XYYZ       0.0000   YYYZ       0.0000
      XXZZ    -120.8033   XYZZ     -35.1277   YYZZ     -54.6169
      XZZZ       0.0000   YZZZ       0.0000   ZZZZ     -53.4003
 -----------------------------------------------------------------
Archival summary:
1\1\hpc3915\OPT\ProcedureUnspecified\BasisUnspecified\r113(\liqiuy\FriJan1719:46:352020FriJan1719:46:352020\0\\#,OPT,ProcedureUnspecified,BasisUnspecified,\\28,1\Zr\O,1,1.79151\O,1,2.04208,2,140.431\S,3,1.74411,1,92.2868,2,-180,0\O,4,1.74373,3,96.409,1,0,0\\\@

 Total job time:  300.68s(wall), 2702.45s(cpu) 
 Fri Jan 17 19:46:35 2020

        *************************************************************
        *                                                           *
        *  Thank you very much for using Q-Chem.  Have a nice day.  *
        *                                                           *
        *************************************************************


0 sent ACK to 0 
now end server 0 ... 
cleanup process ... done
