
Running Job 1 of 2 ZrOx.in
qchem ZrOx.in_59299.0 /tmp/5732712.priya/ZrOx.save/ 1
/usr/usc/qchem/4.4/bin/mpi/mpirun_qchem -machinefile /usr/usc/qchem/4.4/bin/mpi/machines -np 1 /usr/usc/qchem/4.4/exe/qcprog.exe ZrOx.in_59299.0 /tmp/5732712.priya/ZrOx.save/

Process 0 of 1 is on hpc3745.hpcc.usc.edu - thread support 0
initial socket setup ...start
initial socket setup ...done 
now start server 0 ... 
Check license passed

                  Welcome to Q-Chem
     A Quantum Leap Into The Future Of Chemistry


 Q-Chem 4.4, Q-Chem, Inc., Pleasanton, CA (2016)

 Y. Shao,  Z. Gan,  E. Epifanovsky,  A. T. B. Gilbert,  M. Wormit,  
 J. Kussmann,  A. W. Lange,  A. Behn,  J. Deng,  X. Feng,  D. Ghosh,  
 M. Goldey,  P. R. Horn,  L. D. Jacobson,  I. Kaliman,  F.Rob,  
 R. Z. Khaliullin,  T. Kus,  A. Landau,  J. Liu,  E. I. Proynov,  Y. M. Rhee,  
 R. M. Richard,  M. A. Rohrdanz,  R. P. Steele,  E. J. Sundstrom,  
 H. L. Woodcock III,  P. M. Zimmerman,  D. Zuev,  B. Albrecht,  E. Alguire,  
 B. Austin,  S. A. Baeppler,  G. J. O. Beran,  Y. A. Bernard,  E. Berquist,  
 K. Brandhorst,  K. B. Bravaya,  S. T. Brown,  D. Casanova,  C.-M. Chang,  
 Y. Chen,  S. H. Chien,  K. D. Closser,  M. P. Coons,  D. L. Crittenden,  
 S. Dasgupta,  M. Diedenhofen,  R. A. DiStasio Jr.,  H. Do,  A. D. Dutoi,  
 R. G. Edgar,  P.-T. Fang,  S. Fatehi,  Q. Feng,  L. Fusti-Molnar,  
 A. Ghysels,  A. Golubeva-Zadorozhnaya,  J. Gomes,  A. Gunina,  
 M. W. D. Hanson-Heine,  P. H. P. Harbach,  A. W. Hauser,  E. G. Hohenstein,  
 Z. C. Holden,  K. Hui,  T.-C. Jagau,  H. Ji,  B. Kaduk,  K. Khistyaev,  
 Jaehoon Kim,  Jihan Kim,  R. A. King,  P. Klunzinger,  D. Kosenkov,  
 T. Kowalczyk,  C. M. Krauter,  A. Kunitsa,  K. U. Lao,  A. Laurent,  
 K. V. Lawler,  D. Lefrancois,  S. Lehtola,  S. V. Levchenko,  C. Y. Lin,  
 Y.-S. Lin,  F. Liu,  E. Livshits,  R. C. Lochan,  A. Luenser,  P. Manohar,  
 S. F. Manzer,  S.-P. Mao,  Y. Mao,  N. Mardirossian,  A. V. Marenich,  
 L. A. Martinez-Martinez,  S. A. Maurer,  N. J. Mayhall,  J.-M. Mewes,  
 A. F. Morrison,  K. Nanda,  C. M. Oana,  R. Olivares-Amaya,  D. P. O'Neill,  
 J. A. Parkhill,  T. M. Perrine,  R. Peverati,  P. A. Pieniazek,  F. Plasser,  
 A. Prociuk,  D. R. Rehn,  E. Rosta,  N. J. Russ,  N. Sergueev,  
 S. M. Sharada,  S. Sharma,  D. W. Small,  A. Sodt,  T. Stauch,  T. Stein,  
 D. Stuck,  Y.-C. Su,  A. J. W. Thom,  T. Tsuchimochi,  L. Vogt,  O. Vydrov,  
 T. Wang,  M. A. Watson,  J. Wenzel,  A. White,  C. F. Williams,  
 V. Vanovschi,  S. Yeganeh,  S. R. Yost,  Z.-Q. You,  I. Y. Zhang,  X. Zhang,  
 Y. Zhao,  B. R. Brooks,  G. K. L. Chan,  D. M. Chipman,  C. J. Cramer,  
 W. A. Goddard III,  M. S. Gordon,  W. J. Hehre,  A. Klamt,  
 H. F. Schaefer III,  M. W. Schmidt,  C. D. Sherrill,  D. G. Truhlar,  
 A. Warshel,  X. Xu,  A. Aspuru-Guzik,  R. Baer,  A. T. Bell,  N. A. Besley,  
 J.-D. Chai,  A. Dreuw,  B. D. Dunietz,  T. R. Furlani,  S. R. Gwaltney,  
 C.-P. Hsu,  Y. Jung,  J. Kong,  D. S. Lambrecht,  W. Liang,  C. Ochsenfeld,  
 V. A. Rassolov,  L. V. Slipchenko,  J. E. Subotnik,  T. Van Voorhis,  
 J. M. Herbert,  A. I. Krylov,  P. M. W. Gill,  M. Head-Gordon

 Contributors to earlier versions of Q-Chem not listed above: 
 R. D. Adamson,  J. Baker,  E. F. C. Byrd,  A. K. Chakraborty,  C.-L. Cheng,  
 H. Dachsel,  R. J. Doerksen,  G. Hawkins,  A. Heyden,  S. Hirata,  
 G. Kedziora,  F. J. Keil,  C. Kelley,  P. P. Korambath,  W. Kurlancheek,  
 A. M. Lee,  M. S. Lee,  D. Liotard,  I. Lotan,  P. E. Maslen,  N. Nair,  
 D. Neuhauser,  R. Olson,  B. Peters,  J. Ritchie,  N. E. Schultz,  
 N. Shenvi,  A. C. Simmonett,  K. S. Thanthiriwatte,  Q. Wu,  W. Zhang

 Please cite Q-Chem as follows:
 Y. Shao et al., Mol. Phys. 113, 184-215 (2015)
 DOI: 10.1080/00268976.2014.952696

 Q-Chem 4.4.1 for Intel X86 Linux

 Parts of Q-Chem use Armadillo 5.200.1 (Boston Tea Smuggler).
 http://arma.sourceforge.net/

 Q-Chem begins on Fri Jan 17 19:44:09 2020  

Host: 
0

     Scratch files written to /tmp/5732712.priya/ZrOx.save//
 Jul2716 11668_ 21447  21445 5558   
 Parallel job on  1  processors
Processing $rem in /usr/usc/qchem/4.4/config/preferences.
 MEM_TOTAL  2000 

Checking the input file for inconsistencies... 	...done.

--------------------------------------------------------------
User input:
--------------------------------------------------------------
$comment
--------------------------------------------------------
A SINGLE POINT DFT CALCULATION WITH BASIS SET PROJECTION
--------------------------------------------------------
$end

$molecule
0 3
Zr 0.59081 -0.03799 0.00000
O 1.65971 1.31286 0.00000
S -1.60787 0.56439 0.00000
O 1.06461 -1.69057 0.00000
O -2.62031 -0.56890 0.00000
$end

$rem
JOBTYPE   SP
METHOD   B3LYP
BASIS   GEN
ECP   GEN
MAX_SCF_CYCLES   200
SCF_CONVERGENCE 8
SCF_ALGORITHM  DIIS_GDM
SCF_PRINT 1
PDB_PRINT 2
THRESH 14
VARTHRESH 14
INCDFT FALSE
SYMMETRY False
Sym_ignore True
SCF_ALGORITHM GDM
XC_GRID 000128000302
DFT_D           EMPIRICAL_GRIMME3
DFT_D3_S6       1000
DFT_D3_RS6     1261
DFT_D3_S8      1703
DFT_D3_3BODY    FALSE
$end

$basis
O
6-31+G**
****
S
6-31+G**
****
Zr
LanL2DZ
****
$end

$ecp
Zr
LanL2DZ
****
$end

--------------------------------------------------------------
 ----------------------------------------------------------------
             Standard Nuclear Orientation (Angstroms)
    I     Atom           X                Y                Z
 ----------------------------------------------------------------
    1      Zr      0.5908100000    -0.0379900000     0.0000000000
    2      O       1.6597100000     1.3128600000     0.0000000000
    3      S      -1.6078700000     0.5643900000     0.0000000000
    4      O       1.0646100000    -1.6905700000     0.0000000000
    5      O      -2.6203100000    -0.5689000000     0.0000000000
 ----------------------------------------------------------------
 Nuclear Repulsion Energy =   230.4619016121 hartrees
 There are       27 alpha and       25 beta electrons

 Q-Chem warning in module /home/scratch/svnadmin/11668_zgan/qchem/forms1/BasisType.C, line 1419:

 Setting pure/cartesian flag to 2111 for general basis


 Requested basis set is non-standard
 There are 29 shells and 98 basis functions

 Total QAlloc Memory Limit   2000 MB
 Mega-Array Size        61 MB
 MEM_STATIC part        62 MB

                       Distance Matrix (Angstroms)
             Zr(  1)   O (  2)   S (  3)   O (  4)
   O (  2)  1.722598
   S (  3)  2.279705  3.352206
   O (  4)  1.719159  3.061819  3.496712
   O (  5)  3.254713  4.675424  1.519665  3.851854
 
 A cutoff of  1.0D-14 yielded    413 shell pairs
 There are      4879 function pairs (      5505 Cartesian)
 
 -------------------------------------------------------
 OpenMP Integral Computing Module                       
 Release: version 1.0, May 2013, Q-Chem Inc. Pittsburgh 
 -------------------------------------------------------
 Integral Job Info:
 Integral job number is                      11
 Integral operator is                         1
 short-range coefficients                     0
 long-range coefficients              100000000
 Omega coefficients                           0
 if combine SR and LR in K                    0
 Integral screening is                        0
 Integral computing path is                   2
 max size of driver memory is            800000
 size of driver memory is                593474
 size of scratch memory is             15166112
 max col of scratch BK array               1296
 max len of scratch array in speh3          155
 max len of scratch index in speh4           18
 max int batch size is                      520
 min int batch size is                       52
 fixed nKL is                                52
 max L of basis functions is                  2
 order of int derivative is                   0
 number of shells is                         29
 number of basis is                         104
 number of cartesian basis is               104
 number of contracted shell pairs           413
 number of primitive shell pairs           2041
 maxK2 (contraction) of shell pair           36
 max number of K2 of shell pair               1
 max number of CS2 of shell pair             42
 max number of PS2 of shell pair            210
 mem total for path MDJ                   21208
 -------------------------------------------------------
 Requested basis set is non-standard
 Compound shells will be simplified
 There are 42 shells and 98 basis functions
 A cutoff of  1.0D-14 yielded    868 shell pairs
 There are      4840 function pairs (      5466 Cartesian)
 Smallest overlap matrix eigenvalue = 7.33E-04

 Scale SEOQF with 1.000000e-01/1.000000e-01/1.000000e-01

 Standard Electronic Orientation quadrupole field applied
 Nucleus-field energy     =     0.0000000079 hartrees
 Guess MOs from core Hamiltonian diagonalization
 An unrestricted hybrid HF-DFT SCF calculation will be
 performed using Geometric Direct Minimization
 Exchange:     0.2000 Hartree-Fock + 0.0800 Slater + 0.7200 B88
 Correlation:  0.1900 VWN1RPA + 0.8100 LYP
 Using Euler-Maclaurin-Lebedev (128,302) quadrature formula
 Dispersion:   Grimme D3
 SCF converges when RMS gradient is below 1.0E-08
 Maximum number of minimization steps = 200
 using 12 threads for integral computing 
 -------------------------------------------------------
 OpenMP BLAS3 based DFT computing Module                
 Release: version 1.0, May 2013, Q-Chem Inc. Pittsburgh 
 -------------------------------------------------------
 
   ------------------- Entering Geometric Direct Minimization ------------------
   GDM:         diagonal hessian shift is      0.000000000000000E+000
   GDM::PreWSS: input subspace size is                  1
   GDM::PreWSS: working subspace size set to            1
   GDM::PrEWSS: # of linearly dependent vectors =            0
   GDM::PrEWSS: Max dev from orthonormality =   0.000000000000000E+000
   GDM::BFGS:   lowest Hinv e-value     1.00000000000000     
   GDM::BFGS:   highest Hinv e-value    1.00000000000000     
   GDM::      : max scaling in EWCs is          1.41421356237309     
   GDM::      : max rotation in step is        9.604403981607049E-002
   GDM::        grad.step =   -2.09031618878715     
   ------- Leaving GDM -- hopefully with a step in the right direction! --------
 
 ---------------------------------------
  Cycle       Energy        RMS Gradient
 ---------------------------------------
    1    -605.1708158184      1.65E+00  Gap = -67.51 eV  Descent step
 
   ------------------- Entering Geometric Direct Minimization ------------------
   GDM::trust : actual energy change is        -2.07767129645720     
   GDM::trust : predicted energy change was   -0.163350000000000     
   GDM::trust : updated trust radius is        0.330000000000000     
   GDM::search:  On step            1 .  The current bracket is:
       left   : x =  0.0000E+00, e =      -605.1708158184, g = -0.6504E+01
       current: x =  0.3214E+00, e =      -607.2484871148, g = -0.6377E+01
       right  : x =  0.1000E+04, e =      1000.0000000000, g =  0.1000E+04
       next   : x =  0.3214E+01
   GDM::      : max rotation in step is        0.960440398160705     
   ------- Leaving GDM -- hopefully with a step in the right direction! --------
 
    2    -607.2484871148      1.49E+00  Gap = -172.38 eV  Line search: understep
 
   ------------------- Entering Geometric Direct Minimization ------------------
   GDM::trust : actual energy change is        -10.3556565720535     
   GDM::trust : predicted energy change was   -0.163350000000000     
   GDM::trust : updated trust radius is        0.330000000000000     
   GDM:         diagonal hessian shift is      0.000000000000000E+000
   GDM::PreWSS: input subspace size is                  2
   GDM::PreWSS: working subspace size set to            2
   GDM::PrEWSS: # of linearly dependent vectors =            0
   GDM::PrEWSS: Max dev from orthonormality =   8.326672684688674E-016
   GDM::BFGS:   lowest Hinv e-value    0.407293265939009     
   GDM::BFGS:   highest Hinv e-value    1.96106175347639     
   GDM::      : max scaling in EWCs is          2.82842712474619     
   GDM::      : max rotation in step is       -0.147561537441997     
   GDM::        grad.step =   -1.70174029456549     
   ------- Leaving GDM -- hopefully with a step in the right direction! --------
 
    3    -615.5264723904      1.59E+00  Gap = -172.38 eV  Descent step
 
   ------------------- Entering Geometric Direct Minimization ------------------
   GDM::trust : actual energy change is        -1.67815753217690     
   GDM::trust : predicted energy change was   -0.187431637543279     
   GDM::trust : updated trust radius is        0.330000000000000     
   GDM:         diagonal hessian shift is      0.000000000000000E+000
   GDM::PreWSS: input subspace size is                  3
   GDM::PreWSS: working subspace size set to            3
   GDM::PrEWSS: # of linearly dependent vectors =            0
   GDM::PrEWSS: Max dev from orthonormality =   2.795073200667630E-014
   GDM::BFGS:   lowest Hinv e-value    0.152040410301939     
   GDM::BFGS:   highest Hinv e-value    6.72742699938488     
   GDM::      : max scaling in EWCs is          2.82842712474619     
   GDM::      : max rotation in step is       -0.514098180095401     
   GDM::        grad.step =   -2.19511732584331     
   ------- Leaving GDM -- hopefully with a step in the right direction! --------
 
    4    -617.2046299226      3.66E+00  Gap = -172.38 eV  Descent step
 
   ------------------- Entering Geometric Direct Minimization ------------------
   GDM::trust : actual energy change is        -1.95061941870802     
   GDM::trust : predicted energy change was   -0.235298648502308     
   GDM::trust : updated trust radius is        0.330000000000000     
   GDM:         diagonal hessian shift is      0.000000000000000E+000
   GDM::PreWSS: input subspace size is                  4
   GDM::PreWSS: working subspace size set to            4
   GDM::PrEWSS: # of linearly dependent vectors =            0
   GDM::PrEWSS: Max dev from orthonormality =   4.378442053365461E-014
   GDM::BFGS:   lowest Hinv e-value    0.351481764237859     
   GDM::BFGS:   highest Hinv e-value    4.80605946289034     
   GDM::      : max scaling in EWCs is          2.82842712474619     
   GDM::      : max rotation in step is       -0.169598534806488     
   GDM::        grad.step =   -1.42413746793247     
   ------- Leaving GDM -- hopefully with a step in the right direction! --------
 
    5    -619.1552493413      9.92E-01  Gap = -172.38 eV  Descent step
 
   ------------------- Entering Geometric Direct Minimization ------------------
   GDM::trust : actual energy change is        -1.40650351710724     
   GDM::trust : predicted energy change was   -0.132037629648779     
   GDM::trust : updated trust radius is        0.330000000000000     
   GDM:         diagonal hessian shift is      0.000000000000000E+000
   GDM::PreWSS: input subspace size is                  5
   GDM::PreWSS: working subspace size set to            5
   GDM::PrEWSS: # of linearly dependent vectors =            0
   GDM::PrEWSS: Max dev from orthonormality =   7.042422200953524E-013
   GDM::BFGS:   lowest Hinv e-value    0.224142459793800     
   GDM::BFGS:   highest Hinv e-value    6.43277848943344     
   GDM::      : max scaling in EWCs is          2.82842712474619     
   GDM::      : max rotation in step is       -0.329931161692042     
   GDM::        grad.step =   -1.66519227585267     
   ------- Leaving GDM -- hopefully with a step in the right direction! --------
 
    6    -620.5617528584      1.78E+00  Gap = -172.38 eV  Descent step
 
   ------------------- Entering Geometric Direct Minimization ------------------
   GDM::trust : actual energy change is        -1.54658273595271     
   GDM::trust : predicted energy change was   -0.142365107273234     
   GDM::trust : updated trust radius is        0.330000000000000     
   GDM:         diagonal hessian shift is      0.000000000000000E+000
   GDM::PreWSS: input subspace size is                  6
   GDM::PreWSS: working subspace size set to            6
   GDM::PrEWSS: # of linearly dependent vectors =            0
   GDM::PrEWSS: Max dev from orthonormality =   1.976065144848604E-012
   GDM::BFGS:   lowest Hinv e-value    0.196850714123281     
   GDM::BFGS:   highest Hinv e-value    5.04762203492557     
   GDM::      : max scaling in EWCs is          2.82842712474619     
   GDM::      : max rotation in step is        0.242722929673893     
   GDM::        grad.step =   -1.48063499135159     
   ------- Leaving GDM -- hopefully with a step in the right direction! --------
 
    7    -622.1083355944      1.73E+00  Gap = -172.38 eV  Descent step
 
   ------------------- Entering Geometric Direct Minimization ------------------
   GDM::trust : actual energy change is        -1.43375265692316     
   GDM::trust : predicted energy change was   -0.161983536868805     
   GDM::trust : updated trust radius is        0.330000000000000     
   GDM:         diagonal hessian shift is      0.000000000000000E+000
   GDM::PreWSS: input subspace size is                  7
   GDM::PreWSS: working subspace size set to            7
   GDM::PrEWSS: # of linearly dependent vectors =            0
   GDM::PrEWSS: Max dev from orthonormality =   1.619038236810866E-012
   GDM::BFGS:   lowest Hinv e-value    0.226345660349254     
   GDM::BFGS:   highest Hinv e-value    5.76070769691159     
   GDM::      : max scaling in EWCs is          2.82842712474619     
   GDM::      : max rotation in step is        0.155939083674874     
   GDM::        grad.step =   -1.29945335678501     
   ------- Leaving GDM -- hopefully with a step in the right direction! --------
 
    8    -623.5420882513      8.06E-01  Gap = -172.38 eV  Descent step
 
   ------------------- Entering Geometric Direct Minimization ------------------
   GDM::trust : actual energy change is        -1.29170356658040     
   GDM::trust : predicted energy change was   -0.139510958054190     
   GDM::trust : updated trust radius is        0.330000000000000     
   GDM:         diagonal hessian shift is      0.000000000000000E+000
   GDM::PreWSS: input subspace size is                  8
   GDM::PreWSS: working subspace size set to            8
   GDM::PrEWSS: # of linearly dependent vectors =            0
   GDM::PrEWSS: Max dev from orthonormality =   1.926445114541764E-012
   GDM::BFGS:   lowest Hinv e-value    0.127648622257190     
   GDM::BFGS:   highest Hinv e-value    15.4373727313594     
   GDM::      : max scaling in EWCs is          2.82842712474619     
   GDM::      : max rotation in step is       -0.143989682577347     
   GDM::        grad.step =   -1.41135700480818     
   ------- Leaving GDM -- hopefully with a step in the right direction! --------
 
    9    -624.8337918179      1.05E+00  Gap = -172.38 eV  Descent step
 
   ------------------- Entering Geometric Direct Minimization ------------------
   GDM::trust : actual energy change is        -1.40873122938137     
   GDM::trust : predicted energy change was   -0.136034316308433     
   GDM::trust : updated trust radius is        0.330000000000000     
   GDM:         diagonal hessian shift is      0.000000000000000E+000
   GDM::PreWSS: input subspace size is                  9
   GDM::PreWSS: working subspace size set to            9
   GDM::PrEWSS: # of linearly dependent vectors =            0
   GDM::PrEWSS: Max dev from orthonormality =   4.801933156661775E-012
   GDM::BFGS:   lowest Hinv e-value    0.124361317492968     
   GDM::BFGS:   highest Hinv e-value    19.0887024106934     
   GDM::      : max scaling in EWCs is          2.82842712474619     
   GDM::      : max rotation in step is       -0.397077614918552     
   GDM::        grad.step =   -1.78345997933686     
   ------- Leaving GDM -- hopefully with a step in the right direction! --------
 
   10    -626.2425230473      2.39E+00  Gap = -172.38 eV  Descent step
 
   ------------------- Entering Geometric Direct Minimization ------------------
   GDM::trust : actual energy change is        -1.67918255188079     
   GDM::trust : predicted energy change was   -0.155868494796521     
   GDM::trust : updated trust radius is        0.330000000000000     
   GDM:         diagonal hessian shift is      0.000000000000000E+000
   GDM::PreWSS: input subspace size is                 10
   GDM::PreWSS: working subspace size set to           10
   GDM::PrEWSS: # of linearly dependent vectors =            0
   GDM::PrEWSS: Max dev from orthonormality =   8.053883948644369E-012
   GDM::BFGS:   lowest Hinv e-value    0.111327479195306     
   GDM::BFGS:   highest Hinv e-value    16.5632755020825     
   GDM::      : max scaling in EWCs is          2.82842712474619     
   GDM::      : max rotation in step is       -0.257400899586245     
   GDM::        grad.step =   -1.67690420699227     
   ------- Leaving GDM -- hopefully with a step in the right direction! --------
 
   11    -627.9217055991      1.44E+00  Gap = -172.38 eV  Descent step
 
   ------------------- Entering Geometric Direct Minimization ------------------
   GDM::trust : actual energy change is        -1.57621260660483     
   GDM::trust : predicted energy change was   -0.221440767755900     
   GDM::trust : updated trust radius is        0.330000000000000     
   GDM:         diagonal hessian shift is      0.000000000000000E+000
   GDM::PreWSS: input subspace size is                 11
   GDM::PreWSS: working subspace size set to           11
   GDM::PrEWSS: # of linearly dependent vectors =            0
   GDM::PrEWSS: Max dev from orthonormality =   4.387504248803964E-012
   GDM::BFGS:   lowest Hinv e-value    0.119743317909965     
   GDM::BFGS:   highest Hinv e-value    21.6736440581395     
   GDM::      : max scaling in EWCs is          2.82842712474619     
   GDM::      : max rotation in step is       -0.495283586388911     
   GDM::        grad.step =   -1.94744826949805     
   ------- Leaving GDM -- hopefully with a step in the right direction! --------
 
   12    -629.4979182057      3.13E+00  Gap = -172.38 eV  Descent step
 
   ------------------- Entering Geometric Direct Minimization ------------------
   GDM::trust : actual energy change is        -1.71605442866496     
   GDM::trust : predicted energy change was   -0.272062977104281     
   GDM::trust : updated trust radius is        0.330000000000000     
   GDM:         diagonal hessian shift is      0.000000000000000E+000
   GDM::PreWSS: input subspace size is                 12
   GDM::PreWSS: working subspace size set to           12
   GDM::PrEWSS: # of linearly dependent vectors =            0
   GDM::PrEWSS: Max dev from orthonormality =   3.188709712942384E-012
   GDM::BFGS:   lowest Hinv e-value    0.117586606556734     
   GDM::BFGS:   highest Hinv e-value    25.7110200516599     
   GDM::      : max scaling in EWCs is          2.82842712474619     
   GDM::      : max rotation in step is        0.196753230730439     
   GDM::        grad.step =   -1.33501104182893     
   ------- Leaving GDM -- hopefully with a step in the right direction! --------
 
   13    -631.2139726344      8.90E-01  Gap = -172.38 eV  Descent step
 
   ------------------- Entering Geometric Direct Minimization ------------------
   GDM::trust : actual energy change is        -1.32062668213189     
   GDM::trust : predicted energy change was   -0.210700345677296     
   GDM::trust : updated trust radius is        0.330000000000000     
   GDM:         diagonal hessian shift is      0.000000000000000E+000
   GDM::PreWSS: input subspace size is                 13
   GDM::PreWSS: working subspace size set to           13
   GDM::PrEWSS: # of linearly dependent vectors =            0
   GDM::PrEWSS: Max dev from orthonormality =   4.337636153040059E-012
   GDM::BFGS:   lowest Hinv e-value    0.132226902133330     
   GDM::BFGS:   highest Hinv e-value    29.7683936127575     
   GDM::      : max scaling in EWCs is          2.82842712474619     
   GDM::      : max rotation in step is        0.308234018895668     
   GDM::        grad.step =   -1.47925079892968     
   ------- Leaving GDM -- hopefully with a step in the right direction! --------
 
   14    -632.5345993165      1.48E+00  Gap = -172.38 eV  Descent step
 
   ------------------- Entering Geometric Direct Minimization ------------------
   GDM::trust : actual energy change is        -1.41527866094623     
   GDM::trust : predicted energy change was   -0.155934518713153     
   GDM::trust : updated trust radius is        0.330000000000000     
   GDM:         diagonal hessian shift is      0.000000000000000E+000
   GDM::PreWSS: input subspace size is                 14
   GDM::PreWSS: working subspace size set to           14
   GDM::PrEWSS: # of linearly dependent vectors =            0
   GDM::PrEWSS: Max dev from orthonormality =   1.275188288296647E-012
   GDM::BFGS:   lowest Hinv e-value    0.147089803270148     
   GDM::BFGS:   highest Hinv e-value    33.7799723249958     
   GDM::      : max scaling in EWCs is          2.82842712474619     
   GDM::      : max rotation in step is       -0.393389321839549     
   GDM::        grad.step =   -1.41975121210840     
   ------- Leaving GDM -- hopefully with a step in the right direction! --------
 
   15    -633.9498779775      1.81E+00  Gap = -172.38 eV  Descent step
 
   ------------------- Entering Geometric Direct Minimization ------------------
   GDM::trust : actual energy change is        -1.37367449326348     
   GDM::trust : predicted energy change was   -0.180782269669997     
   GDM::trust : updated trust radius is        0.330000000000000     
   GDM:         diagonal hessian shift is      0.000000000000000E+000
   GDM::PreWSS: input subspace size is                 15
   GDM::PreWSS: working subspace size set to           15
   GDM::PrEWSS: # of linearly dependent vectors =            0
   GDM::PrEWSS: Max dev from orthonormality =   4.631416777867159E-012
   GDM::BFGS:   lowest Hinv e-value    0.138589711177075     
   GDM::BFGS:   highest Hinv e-value    37.1149298734846     
   GDM::      : max scaling in EWCs is          2.82842712474619     
   GDM::      : max rotation in step is        0.127258970563773     
   GDM::        grad.step =   -1.34624408490384     
   ------- Leaving GDM -- hopefully with a step in the right direction! --------
 
   16    -635.3235524707      7.89E-01  Gap = -172.38 eV  Descent step
 
   ------------------- Entering Geometric Direct Minimization ------------------
   GDM::trust : actual energy change is        -1.33153601661104     
   GDM::trust : predicted energy change was   -0.183498738567029     
   GDM::trust : updated trust radius is        0.330000000000000     
   GDM:         diagonal hessian shift is      0.000000000000000E+000
   GDM::PreWSS: input subspace size is                 16
   GDM::PreWSS: working subspace size set to           16
   GDM::PrEWSS: # of linearly dependent vectors =            0
   GDM::PrEWSS: Max dev from orthonormality =   3.220004124449005E-012
   GDM::BFGS:   lowest Hinv e-value    0.148875008806312     
   GDM::BFGS:   highest Hinv e-value    40.0221058137191     
   GDM::      : max scaling in EWCs is          2.82842712474619     
   GDM::      : max rotation in step is       -0.242187131795841     
   GDM::        grad.step =   -1.57089999658358     
   ------- Leaving GDM -- hopefully with a step in the right direction! --------
 
   17    -636.6550884874      1.24E+00  Gap = -172.38 eV  Descent step
 
   ------------------- Entering Geometric Direct Minimization ------------------
   GDM::trust : actual energy change is        -1.51990621009350     
   GDM::trust : predicted energy change was   -0.148827618523431     
   GDM::trust : updated trust radius is        0.330000000000000     
   GDM:         diagonal hessian shift is      0.000000000000000E+000
   GDM::PreWSS: input subspace size is                 17
   GDM::PreWSS: working subspace size set to           17
   GDM::PrEWSS: # of linearly dependent vectors =            0
   GDM::PrEWSS: Max dev from orthonormality =   2.718256175704425E-012
   GDM::BFGS:   lowest Hinv e-value    0.146577964680065     
   GDM::BFGS:   highest Hinv e-value    42.2603140828436     
   GDM::      : max scaling in EWCs is          2.82842712474619     
   GDM::      : max rotation in step is       -0.228548957364935     
   GDM::        grad.step =   -1.56044472860091     
   ------- Leaving GDM -- hopefully with a step in the right direction! --------
 
   18    -638.1749946975      1.16E+00  Gap = -172.38 eV  Descent step
 
   ------------------- Entering Geometric Direct Minimization ------------------
   GDM::trust : actual energy change is        -1.53492931066603     
   GDM::trust : predicted energy change was   -0.212329936694617     
   GDM::trust : updated trust radius is        0.330000000000000     
   GDM:         diagonal hessian shift is      0.000000000000000E+000
   GDM::PreWSS: input subspace size is                 18
   GDM::PreWSS: working subspace size set to           18
   GDM::PrEWSS: # of linearly dependent vectors =            0
   GDM::PrEWSS: Max dev from orthonormality =   8.655007266433756E-012
   GDM::BFGS:   lowest Hinv e-value    0.167792369317404     
   GDM::BFGS:   highest Hinv e-value    44.6837016190513     
   GDM::      : max scaling in EWCs is          2.82842712474619     
   GDM::      : max rotation in step is       -0.255612376688299     
   GDM::        grad.step =   -1.76770025378738     
   ------- Leaving GDM -- hopefully with a step in the right direction! --------
 
   19    -639.7099240081      1.47E+00  Gap = -172.38 eV  Descent step
 
   ------------------- Entering Geometric Direct Minimization ------------------
   GDM::trust : actual energy change is        -1.72228874082396     
   GDM::trust : predicted energy change was   -0.196460762186569     
   GDM::trust : updated trust radius is        0.330000000000000     
   GDM:         diagonal hessian shift is      0.000000000000000E+000
   GDM::PreWSS: input subspace size is                 19
   GDM::PreWSS: working subspace size set to           18
   GDM::PrEWSS: # of linearly dependent vectors =            0
   GDM::PrEWSS: Max dev from orthonormality =   4.115095417200898E-012
   GDM::BFGS:   lowest Hinv e-value    0.193998540786484     
   GDM::BFGS:   highest Hinv e-value    44.3245018447277     
   GDM::      : max scaling in EWCs is          2.82842712474619     
   GDM::      : max rotation in step is        0.233118269025809     
   GDM::        grad.step =   -1.64691308500903     
   ------- Leaving GDM -- hopefully with a step in the right direction! --------
 
   20    -641.4322127489      1.25E+00  Gap = -172.38 eV  Descent step
 
   ------------------- Entering Geometric Direct Minimization ------------------
   GDM::trust : actual energy change is        -1.61208542894633     
   GDM::trust : predicted energy change was   -0.193909436577254     
   GDM::trust : updated trust radius is        0.330000000000000     
   GDM:         diagonal hessian shift is      0.000000000000000E+000
   GDM::PreWSS: input subspace size is                 19
   GDM::PreWSS: working subspace size set to           18
   GDM::PrEWSS: # of linearly dependent vectors =            0
   GDM::PrEWSS: Max dev from orthonormality =   4.482504645242358E-012
   GDM::BFGS:   lowest Hinv e-value    0.190739648582684     
   GDM::BFGS:   highest Hinv e-value    48.5074369670260     
   GDM::      : max scaling in EWCs is          2.82842712474619     
   GDM::      : max rotation in step is       -0.245438524805096     
   GDM::        grad.step =   -1.70425169521048     
   ------- Leaving GDM -- hopefully with a step in the right direction! --------
 
   21    -643.0442981779      1.80E+00  Gap = -172.38 eV  Descent step
 
   ------------------- Entering Geometric Direct Minimization ------------------
   GDM::trust : actual energy change is        -1.63096573258315     
   GDM::trust : predicted energy change was   -0.172206820243840     
   GDM::trust : updated trust radius is        0.330000000000000     
   GDM:         diagonal hessian shift is      0.000000000000000E+000
   GDM::PreWSS: input subspace size is                 19
   GDM::PreWSS: working subspace size set to           18
   GDM::PrEWSS: # of linearly dependent vectors =            0
   GDM::PrEWSS: Max dev from orthonormality =   5.765603272589459E-012
   GDM::BFGS:   lowest Hinv e-value    0.190206931555053     
   GDM::BFGS:   highest Hinv e-value    48.3340839749692     
   GDM::      : max scaling in EWCs is          2.82842712474619     
   GDM::      : max rotation in step is        0.339546067256032     
   GDM::        grad.step =   -1.54474593589282     
   ------- Leaving GDM -- hopefully with a step in the right direction! --------
 
   22    -644.6752639105      1.70E+00  Gap = -172.38 eV  Descent step
 
   ------------------- Entering Geometric Direct Minimization ------------------
   GDM::trust : actual energy change is        -1.50515533420366     
   GDM::trust : predicted energy change was   -0.181472565450622     
   GDM::trust : updated trust radius is        0.330000000000000     
   GDM:         diagonal hessian shift is      0.000000000000000E+000
   GDM::PreWSS: input subspace size is                 19
   GDM::PreWSS: working subspace size set to           18
   GDM::PrEWSS: # of linearly dependent vectors =            0
   GDM::PrEWSS: Max dev from orthonormality =   3.993843450400547E-012
   GDM::BFGS:   lowest Hinv e-value    0.185429181030366     
   GDM::BFGS:   highest Hinv e-value    48.2740717979058     
   GDM::      : max scaling in EWCs is          2.82842712474619     
   GDM::      : max rotation in step is        0.241833735218019     
   GDM::        grad.step =   -1.61504057086366     
   ------- Leaving GDM -- hopefully with a step in the right direction! --------
 
   23    -646.1804192447      1.27E+00  Gap = -172.38 eV  Descent step
 
   ------------------- Entering Geometric Direct Minimization ------------------
   GDM::trust : actual energy change is        -1.58309718647138     
   GDM::trust : predicted energy change was   -0.174959300273245     
   GDM::trust : updated trust radius is        0.330000000000000     
   GDM:         diagonal hessian shift is      0.000000000000000E+000
   GDM::PreWSS: input subspace size is                 19
   GDM::PreWSS: working subspace size set to           18
   GDM::PrEWSS: # of linearly dependent vectors =            0
   GDM::PrEWSS: Max dev from orthonormality =   5.922665136104399E-012
   GDM::BFGS:   lowest Hinv e-value    0.174070652488388     
   GDM::BFGS:   highest Hinv e-value    50.4399265962142     
   GDM::      : max scaling in EWCs is          2.82842712474619     
   GDM::      : max rotation in step is       -0.380723982298857     
   GDM::        grad.step =   -1.80135937598701     
   ------- Leaving GDM -- hopefully with a step in the right direction! --------
 
   24    -647.7635164311      2.34E+00  Gap = -172.38 eV  Descent step
 
   ------------------- Entering Geometric Direct Minimization ------------------
   GDM::trust : actual energy change is        -1.71905182616479     
   GDM::trust : predicted energy change was   -0.184560651065711     
   GDM::trust : updated trust radius is        0.330000000000000     
   GDM:         diagonal hessian shift is      0.000000000000000E+000
   GDM::PreWSS: input subspace size is                 19
   GDM::PreWSS: working subspace size set to           18
   GDM::PrEWSS: # of linearly dependent vectors =            0
   GDM::PrEWSS: Max dev from orthonormality =   2.312219860023390E-012
   GDM::BFGS:   lowest Hinv e-value    0.187314946041914     
   GDM::BFGS:   highest Hinv e-value    64.7276336926728     
   GDM::      : max scaling in EWCs is          2.82842712474619     
   GDM::      : max rotation in step is       -0.284250955295317     
   GDM::        grad.step =   -1.67696669865314     
   ------- Leaving GDM -- hopefully with a step in the right direction! --------
 
   25    -649.4825682573      1.55E+00  Gap = -172.38 eV  Descent step
 
   ------------------- Entering Geometric Direct Minimization ------------------
   GDM::trust : actual energy change is        -1.60737733379676     
   GDM::trust : predicted energy change was   -0.201572713039605     
   GDM::trust : updated trust radius is        0.330000000000000     
   GDM:         diagonal hessian shift is      0.000000000000000E+000
   GDM::PreWSS: input subspace size is                 19
   GDM::PreWSS: working subspace size set to           18
   GDM::PrEWSS: # of linearly dependent vectors =            0
   GDM::PrEWSS: Max dev from orthonormality =   1.695057288975121E-012
   GDM::BFGS:   lowest Hinv e-value    0.181542155597138     
   GDM::BFGS:   highest Hinv e-value    45.8823253112792     
   GDM::      : max scaling in EWCs is          2.82842712474619     
   GDM::      : max rotation in step is       -0.205221327927326     
   GDM::        grad.step =   -1.46971199474698     
   ------- Leaving GDM -- hopefully with a step in the right direction! --------
 
   26    -651.0899455911      9.88E-01  Gap = -172.38 eV  Descent step
 
   ------------------- Entering Geometric Direct Minimization ------------------
   GDM::trust : actual energy change is        -1.41206066100176     
   GDM::trust : predicted energy change was   -0.172839690541653     
   GDM::trust : updated trust radius is        0.330000000000000     
   GDM:         diagonal hessian shift is      0.000000000000000E+000
   GDM::PreWSS: input subspace size is                 19
   GDM::PreWSS: working subspace size set to           18
   GDM::PrEWSS: # of linearly dependent vectors =            0
   GDM::PrEWSS: Max dev from orthonormality =   3.112073099220680E-012
   GDM::BFGS:   lowest Hinv e-value    0.193579528327635     
   GDM::BFGS:   highest Hinv e-value    23.0057340038119     
   GDM::      : max scaling in EWCs is          2.82842712474619     
   GDM::      : max rotation in step is        0.209046155513282     
   GDM::        grad.step =   -1.27040819946728     
   ------- Leaving GDM -- hopefully with a step in the right direction! --------
 
   27    -652.5020062521      8.62E-01  Gap = 105.49 eV  Descent step
 
   ------------------- Entering Geometric Direct Minimization ------------------
   GDM::trust : actual energy change is        -1.23179754988450     
   GDM::trust : predicted energy change was   -0.153475818864104     
   GDM::trust : updated trust radius is        0.330000000000000     
   GDM:         diagonal hessian shift is      0.000000000000000E+000
   GDM::PreWSS: input subspace size is                 19
   GDM::PreWSS: working subspace size set to           18
   GDM::PrEWSS: # of linearly dependent vectors =            0
   GDM::PrEWSS: Max dev from orthonormality =   2.238268598242499E-012
   GDM::BFGS:   lowest Hinv e-value    0.152041929940119     
   GDM::BFGS:   highest Hinv e-value    22.8602678498277     
   GDM::      : max scaling in EWCs is          2.82842712474619     
   GDM::      : max rotation in step is       -0.306356189273868     
   GDM::        grad.step =   -1.30331868874155     
   ------- Leaving GDM -- hopefully with a step in the right direction! --------
 
   28    -653.7338038020      1.30E+00  Gap = -172.38 eV  Descent step
 
   ------------------- Entering Geometric Direct Minimization ------------------
   GDM::trust : actual energy change is        -1.25600310839206     
   GDM::trust : predicted energy change was   -0.155675780259290     
   GDM::trust : updated trust radius is        0.330000000000000     
   GDM:         diagonal hessian shift is      0.000000000000000E+000
   GDM::PreWSS: input subspace size is                 19
   GDM::PreWSS: working subspace size set to           18
   GDM::PrEWSS: # of linearly dependent vectors =            0
   GDM::PrEWSS: Max dev from orthonormality =   3.234954838726711E-012
   GDM::BFGS:   lowest Hinv e-value    0.169039525993583     
   GDM::BFGS:   highest Hinv e-value    23.3365550555014     
   GDM::      : max scaling in EWCs is          2.82842712474619     
   GDM::      : max rotation in step is       -0.270910651278462     
   GDM::        grad.step =   -1.22803445520034     
   ------- Leaving GDM -- hopefully with a step in the right direction! --------
 
   29    -654.9898069104      1.08E+00  Gap = -172.38 eV  Descent step
 
   ------------------- Entering Geometric Direct Minimization ------------------
   GDM::trust : actual energy change is        -1.14697859737987     
   GDM::trust : predicted energy change was   -0.157755222657542     
   GDM::trust : updated trust radius is        0.330000000000000     
   GDM:         diagonal hessian shift is      0.000000000000000E+000
   GDM::PreWSS: input subspace size is                 19
   GDM::PreWSS: working subspace size set to           18
   GDM::PrEWSS: # of linearly dependent vectors =            0
   GDM::PrEWSS: Max dev from orthonormality =   1.739493965535743E-012
   GDM::BFGS:   lowest Hinv e-value    0.156799504030311     
   GDM::BFGS:   highest Hinv e-value    24.0179432060349     
   GDM::      : max scaling in EWCs is          2.82842712474619     
   GDM::      : max rotation in step is       -0.268656712744843     
   GDM::        grad.step =   -1.07077616031597     
   ------- Leaving GDM -- hopefully with a step in the right direction! --------
 
   30    -656.1367855078      1.07E+00  Gap = -172.38 eV  Descent step
 
   ------------------- Entering Geometric Direct Minimization ------------------
   GDM::trust : actual energy change is        -1.03109124632340     
   GDM::trust : predicted energy change was   -0.156103447813647     
   GDM::trust : updated trust radius is        0.330000000000000     
   GDM:         diagonal hessian shift is      0.000000000000000E+000
   GDM::PreWSS: input subspace size is                 19
   GDM::PreWSS: working subspace size set to           18
   GDM::PrEWSS: # of linearly dependent vectors =            0
   GDM::PrEWSS: Max dev from orthonormality =   2.089838718744019E-012
   GDM::BFGS:   lowest Hinv e-value    0.139549095312938     
   GDM::BFGS:   highest Hinv e-value    19.1459523921738     
   GDM::      : max scaling in EWCs is          2.82842712474619     
   GDM::      : max rotation in step is        0.245037108806241     
   GDM::        grad.step =   -1.02664435708671     
   ------- Leaving GDM -- hopefully with a step in the right direction! --------
 
   31    -657.1678767541      9.53E-01  Gap = -172.38 eV  Descent step
 
   ------------------- Entering Geometric Direct Minimization ------------------
   GDM::trust : actual energy change is       -0.973725568086138     
   GDM::trust : predicted energy change was   -0.147196392526235     
   GDM::trust : updated trust radius is        0.330000000000000     
   GDM:         diagonal hessian shift is      0.000000000000000E+000
   GDM::PreWSS: input subspace size is                 19
   GDM::PreWSS: working subspace size set to           18
   GDM::PrEWSS: # of linearly dependent vectors =            0
   GDM::PrEWSS: Max dev from orthonormality =   2.355037172219188E-012
   GDM::BFGS:   lowest Hinv e-value    0.135439715153642     
   GDM::BFGS:   highest Hinv e-value    19.6920646471014     
   GDM::      : max scaling in EWCs is          2.82842712474619     
   GDM::      : max rotation in step is        0.215616618468129     
   GDM::        grad.step =  -0.894415533736710     
   ------- Leaving GDM -- hopefully with a step in the right direction! --------
 
   32    -658.1416023222      6.96E-01  Gap = -172.38 eV  Descent step
 
   ------------------- Entering Geometric Direct Minimization ------------------
   GDM::trust : actual energy change is       -0.846995296317345     
   GDM::trust : predicted energy change was   -0.146624157193354     
   GDM::trust : updated trust radius is        0.330000000000000     
   GDM:         diagonal hessian shift is      0.000000000000000E+000
   GDM::PreWSS: input subspace size is                 19
   GDM::PreWSS: working subspace size set to           18
   GDM::PrEWSS: # of linearly dependent vectors =            0
   GDM::PrEWSS: Max dev from orthonormality =   2.004806043398588E-012
   GDM::BFGS:   lowest Hinv e-value    0.123725872211466     
   GDM::BFGS:   highest Hinv e-value    20.5522929127854     
   GDM::      : max scaling in EWCs is          2.82842712474619     
   GDM::      : max rotation in step is       -0.233298181482642     
   GDM::        grad.step =  -0.801387773467674     
   ------- Leaving GDM -- hopefully with a step in the right direction! --------
 
   33    -658.9885976185      7.74E-01  Gap = -172.38 eV  Descent step
 
   ------------------- Entering Geometric Direct Minimization ------------------
   GDM::trust : actual energy change is       -0.761998220187024     
   GDM::trust : predicted energy change was   -0.140307421965002     
   GDM::trust : updated trust radius is        0.330000000000000     
   GDM:         diagonal hessian shift is      0.000000000000000E+000
   GDM::PreWSS: input subspace size is                 19
   GDM::PreWSS: working subspace size set to           18
   GDM::PrEWSS: # of linearly dependent vectors =            0
   GDM::PrEWSS: Max dev from orthonormality =   1.221767478853941E-012
   GDM::BFGS:   lowest Hinv e-value    0.121025696221928     
   GDM::BFGS:   highest Hinv e-value    19.2195383345432     
   GDM::      : max scaling in EWCs is          2.82842712474619     
   GDM::      : max rotation in step is        0.144950455803331     
   GDM::        grad.step =  -0.700395813929828     
   ------- Leaving GDM -- hopefully with a step in the right direction! --------
 
   34    -659.7505958387      5.17E-01  Gap = -172.38 eV  Descent step
 
   ------------------- Entering Geometric Direct Minimization ------------------
   GDM::trust : actual energy change is       -0.674042154326003     
   GDM::trust : predicted energy change was   -0.136376209127195     
   GDM::trust : updated trust radius is        0.330000000000000     
   GDM:         diagonal hessian shift is      0.000000000000000E+000
   GDM::PreWSS: input subspace size is                 19
   GDM::PreWSS: working subspace size set to           18
   GDM::PrEWSS: # of linearly dependent vectors =            0
   GDM::PrEWSS: Max dev from orthonormality =   1.482616113213098E-012
   GDM::BFGS:   lowest Hinv e-value    0.125279993594680     
   GDM::BFGS:   highest Hinv e-value    19.1452748206835     
   GDM::      : max scaling in EWCs is          2.82842712474619     
   GDM::      : max rotation in step is       -0.159867467730356     
   GDM::        grad.step =  -0.661508433816886     
   ------- Leaving GDM -- hopefully with a step in the right direction! --------
 
   35    -660.4246379930      5.04E-01  Gap = -172.38 eV  Descent step
 
   ------------------- Entering Geometric Direct Minimization ------------------
   GDM::trust : actual energy change is       -0.641438610210571     
   GDM::trust : predicted energy change was   -0.128045748218645     
   GDM::trust : updated trust radius is        0.330000000000000     
   GDM:         diagonal hessian shift is      0.000000000000000E+000
   GDM::PreWSS: input subspace size is                 19
   GDM::PreWSS: working subspace size set to           18
   GDM::PrEWSS: # of linearly dependent vectors =            0
   GDM::PrEWSS: Max dev from orthonormality =   3.518626362497557E-012
   GDM::BFGS:   lowest Hinv e-value    0.110069624437957     
   GDM::BFGS:   highest Hinv e-value    14.6236587500835     
   GDM::      : max scaling in EWCs is          2.82842712474619     
   GDM::      : max rotation in step is       -0.114363039717603     
   GDM::        grad.step =  -0.642122724871038     
   ------- Leaving GDM -- hopefully with a step in the right direction! --------
 
   36    -661.0660766032      6.99E-01  Gap = -172.38 eV  Descent step
 
   ------------------- Entering Geometric Direct Minimization ------------------
   GDM::trust : actual energy change is       -0.647203510403870     
   GDM::trust : predicted energy change was   -0.137511726309415     
   GDM::trust : updated trust radius is        0.330000000000000     
   GDM:         diagonal hessian shift is      0.000000000000000E+000
   GDM::PreWSS: input subspace size is                 19
   GDM::PreWSS: working subspace size set to           18
   GDM::PrEWSS: # of linearly dependent vectors =            0
   GDM::PrEWSS: Max dev from orthonormality =   1.797464954655936E-012
   GDM::BFGS:   lowest Hinv e-value   -4.026007730940049E-003
   GDM::BFGS:   highest Hinv e-value    31278.8088025683     
   GDM::BFGS:   rebuilding Hinv to be positive definite
   GDM::      : max scaling in EWCs is          2.82842712474619     
   GDM::      : max rotation in step is       -0.165927250776534     
   GDM::        grad.step =  -0.759384017513255     
   ------- Leaving GDM -- hopefully with a step in the right direction! --------
 
   37    -661.7132801136      9.22E-01  Gap = -172.38 eV  Descent step
 
   ------------------- Entering Geometric Direct Minimization ------------------
   GDM::trust : actual energy change is       -0.773551489264719     
   GDM::trust : predicted energy change was    -2.42865844645313     
   GDM::trust : updated trust radius is        0.330000000000000     
   GDM:         diagonal hessian shift is      0.000000000000000E+000
   GDM::PreWSS: input subspace size is                 19
   GDM::PreWSS: working subspace size set to           18
   GDM::PrEWSS: # of linearly dependent vectors =            0
   GDM::PrEWSS: Max dev from orthonormality =   2.493706630080084E-012
   GDM::BFGS:   lowest Hinv e-value   -8.661314525333479E-002
   GDM::BFGS:   highest Hinv e-value    215288.502172944     
   GDM::BFGS:   rebuilding Hinv to be positive definite
   GDM::      : max scaling in EWCs is          2.82842712474619     
   GDM::      : max rotation in step is        0.593207538538116     
   GDM::        grad.step =   -1.19294847961795     
   ------- Leaving GDM -- hopefully with a step in the right direction! --------
 
   38    -662.4868316029      2.30E+00  Gap = -172.38 eV  Descent step
 
   ------------------- Entering Geometric Direct Minimization ------------------
   GDM::trust : actual energy change is       -0.954970145554967     
   GDM::trust : predicted energy change was   -0.196455799918093     
   GDM::trust : updated trust radius is        0.330000000000000     
   GDM:         diagonal hessian shift is      0.000000000000000E+000
   GDM::PreWSS: input subspace size is                 19
   GDM::PreWSS: working subspace size set to           18
   GDM::PrEWSS: # of linearly dependent vectors =            0
   GDM::PrEWSS: Max dev from orthonormality =   2.031003837332790E-012
   GDM::BFGS:   lowest Hinv e-value   -2.519242041979258E-002
   GDM::BFGS:   highest Hinv e-value    146642.788796667     
   GDM::BFGS:   rebuilding Hinv to be positive definite
   GDM::      : max scaling in EWCs is          2.82842712474619     
   GDM::      : max rotation in step is       -0.221179333042203     
   GDM::        grad.step =  -0.806620685852639     
   ------- Leaving GDM -- hopefully with a step in the right direction! --------
 
   39    -663.4418017484      5.79E-01  Gap = -172.38 eV  Descent step
 
   ------------------- Entering Geometric Direct Minimization ------------------
   GDM::trust : actual energy change is       -0.685151975442182     
   GDM::trust : predicted energy change was    -1.10922116153474     
   GDM::trust : updated trust radius is        0.330000000000000     
   GDM:         diagonal hessian shift is      0.000000000000000E+000
   GDM::PreWSS: input subspace size is                 19
   GDM::PreWSS: working subspace size set to           18
   GDM::PrEWSS: # of linearly dependent vectors =            0
   GDM::PrEWSS: Max dev from orthonormality =   1.407450544999023E-012
   GDM::BFGS:   lowest Hinv e-value    9.432034769237520E-002
   GDM::BFGS:   highest Hinv e-value    142098.019985143     
   GDM::      : max scaling in EWCs is          2.82842712474619     
   GDM::      : max rotation in step is       -0.175094128361527     
   GDM::        grad.step =  -0.789425682477190     
   ------- Leaving GDM -- hopefully with a step in the right direction! --------
 
   40    -664.1269537239      8.87E-01  Gap = -21.77 eV  Descent step
 
   ------------------- Entering Geometric Direct Minimization ------------------
   GDM::trust : actual energy change is       -0.768404417112606     
   GDM::trust : predicted energy change was   -0.190653800313298     
   GDM::trust : updated trust radius is        0.330000000000000     
   GDM:         diagonal hessian shift is      0.000000000000000E+000
   GDM::PreWSS: input subspace size is                 19
   GDM::PreWSS: working subspace size set to           18
   GDM::PrEWSS: # of linearly dependent vectors =            0
   GDM::PrEWSS: Max dev from orthonormality =   1.302083441068191E-012
   GDM::BFGS:   lowest Hinv e-value    8.984271090803797E-002
   GDM::BFGS:   highest Hinv e-value    197587.745710038     
   GDM::      : max scaling in EWCs is          2.82842712474619     
   GDM::      : max rotation in step is        0.568460441512749     
   GDM::        grad.step =   -1.06552716713103     
   ------- Leaving GDM -- hopefully with a step in the right direction! --------
 
   41    -664.8953581410      1.97E+00  Gap = 119.55 eV  Descent step
 
   ------------------- Entering Geometric Direct Minimization ------------------
   GDM::trust : actual energy change is       -0.903060901345611     
   GDM::trust : predicted energy change was   -0.214538867528063     
   GDM::trust : updated trust radius is        0.330000000000000     
   GDM:         diagonal hessian shift is      0.000000000000000E+000
   GDM::PreWSS: input subspace size is                 19
   GDM::PreWSS: working subspace size set to           18
   GDM::PrEWSS: # of linearly dependent vectors =            0
   GDM::PrEWSS: Max dev from orthonormality =   1.408158312177221E-012
   GDM::BFGS:   lowest Hinv e-value    0.145482815270274     
   GDM::BFGS:   highest Hinv e-value    196673.986367298     
   GDM::      : max scaling in EWCs is          2.82842712474619     
   GDM::      : max rotation in step is        0.274573595047566     
   GDM::        grad.step =  -0.680066414524479     
   ------- Leaving GDM -- hopefully with a step in the right direction! --------
 
   42    -665.7984190423      1.12E+00  Gap = 119.55 eV  Descent step
 
   ------------------- Entering Geometric Direct Minimization ------------------
   GDM::trust : actual energy change is       -0.675071467649559     
   GDM::trust : predicted energy change was   -0.175776183653067     
   GDM::trust : updated trust radius is        0.330000000000000     
   GDM:         diagonal hessian shift is      0.000000000000000E+000
   GDM::PreWSS: input subspace size is                 19
   GDM::PreWSS: working subspace size set to           18
   GDM::PrEWSS: # of linearly dependent vectors =            0
   GDM::PrEWSS: Max dev from orthonormality =   1.395092374956164E-012
   GDM::BFGS:   lowest Hinv e-value    0.162045089589380     
   GDM::BFGS:   highest Hinv e-value    216146.531014843     
   GDM::      : max scaling in EWCs is          2.82842712474619     
   GDM::      : max rotation in step is        0.284682834250142     
   GDM::        grad.step =  -0.635344204879913     
   ------- Leaving GDM -- hopefully with a step in the right direction! --------
 
   43    -666.4734905100      1.11E+00  Gap = 119.55 eV  Descent step
 
   ------------------- Entering Geometric Direct Minimization ------------------
   GDM::trust : actual energy change is       -0.590589357763633     
   GDM::trust : predicted energy change was   -0.116680929003982     
   GDM::trust : updated trust radius is        0.330000000000000     
   GDM:         diagonal hessian shift is      0.000000000000000E+000
   GDM::PreWSS: input subspace size is                 19
   GDM::PreWSS: working subspace size set to           18
   GDM::PrEWSS: # of linearly dependent vectors =            0
   GDM::PrEWSS: Max dev from orthonormality =   6.666334151361752E-013
   GDM::BFGS:   lowest Hinv e-value    0.142367580908146     
   GDM::BFGS:   highest Hinv e-value    216669.232256011     
   GDM::      : max scaling in EWCs is          2.82842712474619     
   GDM::      : max rotation in step is       -0.225665064072164     
   GDM::        grad.step =  -0.513730798877110     
   ------- Leaving GDM -- hopefully with a step in the right direction! --------
 
   44    -667.0640798678      4.58E-01  Gap = 119.55 eV  Descent step
 
   ------------------- Entering Geometric Direct Minimization ------------------
   GDM::trust : actual energy change is       -0.501889967761372     
   GDM::trust : predicted energy change was   -0.136990385491140     
   GDM::trust : updated trust radius is        0.330000000000000     
   GDM:         diagonal hessian shift is      0.000000000000000E+000
   GDM::PreWSS: input subspace size is                 19
   GDM::PreWSS: working subspace size set to           18
   GDM::PrEWSS: # of linearly dependent vectors =            0
   GDM::PrEWSS: Max dev from orthonormality =   1.930433243813034E-012
   GDM::BFGS:   lowest Hinv e-value    0.145935497915691     
   GDM::BFGS:   highest Hinv e-value    232057.642507106     
   GDM::      : max scaling in EWCs is          2.82842712474619     
   GDM::      : max rotation in step is       -0.463961138315207     
   GDM::        grad.step =  -0.590688856881055     
   ------- Leaving GDM -- hopefully with a step in the right direction! --------
 
   45    -667.5659698355      1.17E+00  Gap = 119.55 eV  Descent step
 
   ------------------- Entering Geometric Direct Minimization ------------------
   GDM::trust : actual energy change is       -0.541374758642633     
   GDM::trust : predicted energy change was   -0.165919744226395     
   GDM::trust : updated trust radius is        0.330000000000000     
   GDM:         diagonal hessian shift is      0.000000000000000E+000
   GDM::PreWSS: input subspace size is                 19
   GDM::PreWSS: working subspace size set to           18
   GDM::PrEWSS: # of linearly dependent vectors =            0
   GDM::PrEWSS: Max dev from orthonormality =   2.301006607474676E-012
   GDM::BFGS:   lowest Hinv e-value    0.121503459920641     
   GDM::BFGS:   highest Hinv e-value    244146.237082254     
   GDM::      : max scaling in EWCs is          2.82842712474619     
   GDM::      : max rotation in step is       -0.282493898969992     
   GDM::        grad.step =  -0.457226898940239     
   ------- Leaving GDM -- hopefully with a step in the right direction! --------
 
   46    -668.1073445942      5.13E-01  Gap = 119.55 eV  Descent step
 
   ------------------- Entering Geometric Direct Minimization ------------------
   GDM::trust : actual energy change is       -0.427808672650599     
   GDM::trust : predicted energy change was   -0.150904727676901     
   GDM::trust : updated trust radius is        0.330000000000000     
   GDM:         diagonal hessian shift is      0.000000000000000E+000
   GDM::PreWSS: input subspace size is                 19
   GDM::PreWSS: working subspace size set to           18
   GDM::PrEWSS: # of linearly dependent vectors =            0
   GDM::PrEWSS: Max dev from orthonormality =   2.193349668555555E-012
   GDM::BFGS:   lowest Hinv e-value    7.811739471133777E-002
   GDM::BFGS:   highest Hinv e-value    264334.490809566     
   GDM::      : max scaling in EWCs is          2.82842712474619     
   GDM::      : max rotation in step is       -0.342457473507626     
   GDM::        grad.step =  -0.482235365772307     
   ------- Leaving GDM -- hopefully with a step in the right direction! --------
 
   47    -668.5351532668      5.76E-01  Gap = 119.55 eV  Descent step
 
   ------------------- Entering Geometric Direct Minimization ------------------
   GDM::trust : actual energy change is       -0.406901148308748     
   GDM::trust : predicted energy change was   -0.195757980797128     
   GDM::trust : updated trust radius is        0.330000000000000     
   GDM:         diagonal hessian shift is      0.000000000000000E+000
   GDM::PreWSS: input subspace size is                 19
   GDM::PreWSS: working subspace size set to           18
   GDM::PrEWSS: # of linearly dependent vectors =            0
   GDM::PrEWSS: Max dev from orthonormality =   1.896580115179347E-012
   GDM::BFGS:   lowest Hinv e-value    6.755923480424482E-002
   GDM::BFGS:   highest Hinv e-value    270391.704305370     
   GDM::      : max scaling in EWCs is          2.82842712474619     
   GDM::      : max rotation in step is        0.377959737906069     
   GDM::        grad.step =  -0.548816665375513     
   ------- Leaving GDM -- hopefully with a step in the right direction! --------
 
   48    -668.9420544151      6.73E-01  Gap = 119.55 eV  Descent step
 
   ------------------- Entering Geometric Direct Minimization ------------------
   GDM::trust : actual energy change is       -0.337008606794598     
   GDM::trust : predicted energy change was   -0.375013788057294     
   GDM::trust : updated trust radius is        0.330000000000000     
   GDM:         diagonal hessian shift is      0.000000000000000E+000
   GDM::PreWSS: input subspace size is                 19
   GDM::PreWSS: working subspace size set to           18
   GDM::PrEWSS: # of linearly dependent vectors =            0
   GDM::PrEWSS: Max dev from orthonormality =   8.682464469611517E-013
   GDM::BFGS:   lowest Hinv e-value    7.368939341744550E-002
   GDM::BFGS:   highest Hinv e-value    302219.932980349     
   GDM::      : max scaling in EWCs is          2.82842712474619     
   GDM::      : max rotation in step is       -0.341451158666493     
   GDM::        grad.step =  -0.673727592988014     
   ------- Leaving GDM -- hopefully with a step in the right direction! --------
 
   49    -669.2790630219      7.50E-01  Gap = 119.55 eV  Descent step
 
   ------------------- Entering Geometric Direct Minimization ------------------
   GDM::trust : actual energy change is       -0.317652002833711     
   GDM::trust : predicted energy change was   -0.459371823308982     
   GDM::trust : updated trust radius is        0.330000000000000     
   GDM:         diagonal hessian shift is      0.000000000000000E+000
   GDM::PreWSS: input subspace size is                 19
   GDM::PreWSS: working subspace size set to           18
   GDM::PrEWSS: # of linearly dependent vectors =            0
   GDM::PrEWSS: Max dev from orthonormality =   1.574577274121580E-012
   GDM::BFGS:   lowest Hinv e-value    9.508481655335747E-002
   GDM::BFGS:   highest Hinv e-value    300681.854795381     
   GDM::      : max scaling in EWCs is          2.82842712474619     
   GDM::      : max rotation in step is       -0.350246003157237     
   GDM::        grad.step =  -0.503551300858449     
   ------- Leaving GDM -- hopefully with a step in the right direction! --------
 
   50    -669.5967150247      5.73E-01  Gap = 119.55 eV  Descent step
 
   ------------------- Entering Geometric Direct Minimization ------------------
   GDM::trust : actual energy change is       -0.237000891712341     
   GDM::trust : predicted energy change was   -0.377843080654262     
   GDM::trust : updated trust radius is        0.330000000000000     
   GDM:         diagonal hessian shift is      0.000000000000000E+000
   GDM::PreWSS: input subspace size is                 19
   GDM::PreWSS: working subspace size set to           18
   GDM::PrEWSS: # of linearly dependent vectors =            0
   GDM::PrEWSS: Max dev from orthonormality =   6.455669332439129E-013
   GDM::BFGS:   lowest Hinv e-value    0.129087812268846     
   GDM::BFGS:   highest Hinv e-value    296576.558052557     
   GDM::      : max scaling in EWCs is          2.82842712474619     
   GDM::      : max rotation in step is        0.392200761172005     
   GDM::        grad.step =  -0.452252732545816     
   ------- Leaving GDM -- hopefully with a step in the right direction! --------
 
   51    -669.8337159165      5.76E-01  Gap = 119.55 eV  Descent step
 
   ------------------- Entering Geometric Direct Minimization ------------------
   GDM::trust : actual energy change is       -0.219979812212728     
   GDM::trust : predicted energy change was   -0.302629039729457     
   GDM::trust : updated trust radius is        0.330000000000000     
   GDM:         diagonal hessian shift is      0.000000000000000E+000
   GDM::PreWSS: input subspace size is                 19
   GDM::PreWSS: working subspace size set to           18
   GDM::PrEWSS: # of linearly dependent vectors =            0
   GDM::PrEWSS: Max dev from orthonormality =   8.337289192361652E-013
   GDM::BFGS:   lowest Hinv e-value    0.109258133592723     
   GDM::BFGS:   highest Hinv e-value    267661.460603677     
   GDM::      : max scaling in EWCs is          2.82842712474619     
   GDM::      : max rotation in step is       -0.195262754003961     
   GDM::        grad.step =  -0.307138118337033     
   ------- Leaving GDM -- hopefully with a step in the right direction! --------
 
   52    -670.0536957287      2.77E-01  Gap = 119.55 eV  Descent step
 
   ------------------- Entering Geometric Direct Minimization ------------------
   GDM::trust : actual energy change is       -5.160113461420224E-002
   GDM::trust : predicted energy change was   -0.376208628115192     
   GDM::trust : updated trust radius is        0.330000000000000     
   GDM:         diagonal hessian shift is      0.000000000000000E+000
   GDM::PreWSS: input subspace size is                 19
   GDM::PreWSS: working subspace size set to           18
   GDM::PrEWSS: # of linearly dependent vectors =            0
   GDM::PrEWSS: Max dev from orthonormality =   3.448179242138139E-013
   GDM::BFGS:   lowest Hinv e-value    0.175948968983563     
   GDM::BFGS:   highest Hinv e-value    296596.165998324     
   GDM::      : max scaling in EWCs is          2.82842712474619     
   GDM::      : max rotation in step is        0.346730254354562     
   GDM::        grad.step =  -0.369166249482182     
   ------- Leaving GDM -- hopefully with a step in the right direction! --------
 
   53    -670.1052968633      4.75E-01  Gap = 0.00 eV  Descent step
 
   ------------------- Entering Geometric Direct Minimization ------------------
   GDM::trust : actual energy change is       -0.106144748429642     
   GDM::trust : predicted energy change was   -0.344910855725310     
   GDM::trust : updated trust radius is        0.330000000000000     
   GDM:         diagonal hessian shift is      0.000000000000000E+000
   GDM::PreWSS: input subspace size is                 19
   GDM::PreWSS: working subspace size set to           18
   GDM::PrEWSS: # of linearly dependent vectors =            0
   GDM::PrEWSS: Max dev from orthonormality =   2.435135426637203E-013
   GDM::BFGS:   lowest Hinv e-value    0.116135657976460     
   GDM::BFGS:   highest Hinv e-value    145.203728310308     
   GDM::      : max scaling in EWCs is          2.82842712474619     
   GDM::      : max rotation in step is       -0.246102183888648     
   GDM::        grad.step =  -0.253512923697720     
   ------- Leaving GDM -- hopefully with a step in the right direction! --------
 
   54    -670.2114416117      2.11E-01  Gap = -172.38 eV  Descent step
 
   ------------------- Entering Geometric Direct Minimization ------------------
   GDM::trust : actual energy change is        6.838864823066615E-002
   GDM::trust : predicted energy change was   -0.441985763803444     
   GDM::trust : updated trust radius is        0.108900000000000     
   GDM::search:  On step            1 .  The current bracket is:
       left   : x =  0.0000E+00, e =      -670.2114416117, g = -0.4827E+00
       current: x =  0.5252E+00, e =      -670.1430529635, g =  0.8392E+00
       right  : x =  0.1000E+04, e =      1000.0000000000, g =  0.1000E+04
       next   : x =  0.2068E+00
   GDM::      : max rotation in step is       -9.690863544444750E-002
   ------- Leaving GDM -- hopefully with a step in the right direction! --------
 
   55    -670.1430529635      7.85E-02  Gap = -172.38 eV  Line search: overstep
 
   ------------------- Entering Geometric Direct Minimization ------------------
   GDM::trust : actual energy change is       -5.569773321713001E-002
   GDM::trust : predicted energy change was   -0.441985763803444     
   GDM::trust : updated trust radius is        0.108900000000000     
   GDM:         diagonal hessian shift is      0.000000000000000E+000
   GDM::PreWSS: input subspace size is                 19
   GDM::PreWSS: working subspace size set to           18
   GDM::PrEWSS: # of linearly dependent vectors =            0
   GDM::PrEWSS: Max dev from orthonormality =   1.189569276416336E-013
   GDM::BFGS:   lowest Hinv e-value    0.183313493348592     
   GDM::BFGS:   highest Hinv e-value    11.9004458006996     
   GDM::      : max scaling in EWCs is          2.82842712474619     
   GDM::      : max rotation in step is       -0.133019382384549     
   GDM::        grad.step =  -3.817054340507149E-002
   ------- Leaving GDM -- hopefully with a step in the right direction! --------
 
   56    -670.2671393449      1.51E-01  Gap = -172.38 eV  Descent step
 
   ------------------- Entering Geometric Direct Minimization ------------------
   GDM::trust : actual energy change is       -3.182852813802128E-002
   GDM::trust : predicted energy change was   -1.922305201335561E-002
   GDM::trust : updated trust radius is        0.330000000000000     
   GDM:         diagonal hessian shift is      0.000000000000000E+000
   GDM::PreWSS: input subspace size is                 19
   GDM::PreWSS: working subspace size set to           18
   GDM::PrEWSS: # of linearly dependent vectors =            0
   GDM::PrEWSS: Max dev from orthonormality =   4.422920363289506E-013
   GDM::BFGS:   lowest Hinv e-value    0.154647267713580     
   GDM::BFGS:   highest Hinv e-value    11.8950058998438     
   GDM::trust : dogleg step length is          0.330000000000000     
   GDM::      : max scaling in EWCs is          2.82842712474619     
   GDM::      : max rotation in step is       -0.359228983354212     
   GDM::        grad.step =  -9.108374881870110E-002
   ------- Leaving GDM -- hopefully with a step in the right direction! --------
 
   57    -670.2989678731      1.23E-01  Gap = -172.38 eV  Dog-leg BFGS step
 
   ------------------- Entering Geometric Direct Minimization ------------------
   GDM::trust : actual energy change is       -3.012921878882935E-002
   GDM::trust : predicted energy change was   -0.132303195531746     
   GDM::trust : updated trust radius is        0.330000000000000     
   GDM:         diagonal hessian shift is      0.000000000000000E+000
   GDM::PreWSS: input subspace size is                 19
   GDM::PreWSS: working subspace size set to           18
   GDM::PrEWSS: # of linearly dependent vectors =            0
   GDM::PrEWSS: Max dev from orthonormality =   3.749535404384829E-013
   GDM::BFGS:   lowest Hinv e-value    0.180675124370195     
   GDM::BFGS:   highest Hinv e-value    12.8238704414756     
   GDM::      : max scaling in EWCs is          2.57887367590482     
   GDM::      : max rotation in step is       -0.514873238296360     
   GDM::        grad.step =  -0.157031116064449     
   ------- Leaving GDM -- hopefully with a step in the right direction! --------
 
   58    -670.3290970919      2.88E-01  Gap = -172.38 eV  Descent step
 
   ------------------- Entering Geometric Direct Minimization ------------------
   GDM::trust : actual energy change is        9.939693893613821E-002
   GDM::trust : predicted energy change was   -0.387993774246289     
   GDM::trust : updated trust radius is        0.108900000000000     
   GDM::search:  On step            1 .  The current bracket is:
       left   : x =  0.0000E+00, e =      -670.3290970919, g = -0.2492E+00
       current: x =  0.6301E+00, e =      -670.2297001529, g =  0.4391E+00
       right  : x =  0.1000E+04, e =      1000.0000000000, g =  0.1000E+04
       next   : x =  0.1929E+00
   GDM::      : max rotation in step is       -0.157648739411936     
   ------- Leaving GDM -- hopefully with a step in the right direction! --------
 
   59    -670.2297001529      5.72E-02  Gap = -172.38 eV  Line search: overstep
 
   ------------------- Entering Geometric Direct Minimization ------------------
   GDM::trust : actual energy change is       -2.002161532152513E-002
   GDM::trust : predicted energy change was   -0.387993774246289     
   GDM::trust : updated trust radius is        0.108900000000000     
   GDM:         diagonal hessian shift is      0.000000000000000E+000
   GDM::PreWSS: input subspace size is                 19
   GDM::PreWSS: working subspace size set to           18
   GDM::PrEWSS: # of linearly dependent vectors =            0
   GDM::PrEWSS: Max dev from orthonormality =   2.397110288043791E-013
   GDM::BFGS:   lowest Hinv e-value    0.142898311828843     
   GDM::BFGS:   highest Hinv e-value    11.9518351745019     
   GDM::      : max scaling in EWCs is          2.82842712474619     
   GDM::      : max rotation in step is        0.158820620818953     
   GDM::        grad.step =  -1.584224014122420E-002
   ------- Leaving GDM -- hopefully with a step in the right direction! --------
 
   60    -670.3491187072      7.73E-02  Gap = -172.38 eV  Descent step
 
   ------------------- Entering Geometric Direct Minimization ------------------
   GDM::trust : actual energy change is        8.977718169603577E-003
   GDM::trust : predicted energy change was   -3.445655060112376E-002
   GDM::trust : updated trust radius is        0.108900000000000     
   GDM::search:  On step            1 .  The current bracket is:
       left   : x =  0.0000E+00, e =      -670.3491187072, g = -0.7993E-01
       current: x =  0.1982E+00, e =      -670.3401409890, g =  0.1789E+00
       right  : x =  0.1000E+04, e =      1000.0000000000, g =  0.1000E+04
       next   : x =  0.6325E-01
   GDM::      : max rotation in step is        5.068651572421311E-002
   ------- Leaving GDM -- hopefully with a step in the right direction! --------
 
   61    -670.3401409890      2.06E-02  Gap = -172.38 eV  Line search: overstep
 
   ------------------- Entering Geometric Direct Minimization ------------------
   GDM::trust : actual energy change is       -2.657886363635953E-003
   GDM::trust : predicted energy change was   -3.445655060112376E-002
   GDM::trust : updated trust radius is        0.108900000000000     
   GDM:         diagonal hessian shift is      0.000000000000000E+000
   GDM::PreWSS: input subspace size is                 19
   GDM::PreWSS: working subspace size set to           18
   GDM::PrEWSS: # of linearly dependent vectors =            0
   GDM::PrEWSS: Max dev from orthonormality =   3.019286209937633E-013
   GDM::BFGS:   lowest Hinv e-value    0.160750836841090     
   GDM::BFGS:   highest Hinv e-value    11.1720505994225     
   GDM::trust : dogleg step length is          0.108900000000000     
   GDM::      : max scaling in EWCs is          2.82842712474619     
   GDM::      : max rotation in step is       -0.189739434192223     
   GDM::        grad.step =  -9.403313765082058E-003
   ------- Leaving GDM -- hopefully with a step in the right direction! --------
 
   62    -670.3517765935      7.17E-02  Gap = -172.38 eV  Dog-leg BFGS step
 
   ------------------- Entering Geometric Direct Minimization ------------------
   GDM::trust : actual energy change is       -3.458644894749341E-003
   GDM::trust : predicted energy change was   -1.785590074397356E-002
   GDM::trust : updated trust radius is        0.108900000000000     
   GDM:         diagonal hessian shift is      0.000000000000000E+000
   GDM::PreWSS: input subspace size is                 19
   GDM::PreWSS: working subspace size set to           18
   GDM::PrEWSS: # of linearly dependent vectors =            0
   GDM::PrEWSS: Max dev from orthonormality =   4.988440216457946E-013
   GDM::BFGS:   lowest Hinv e-value    0.167075165566490     
   GDM::BFGS:   highest Hinv e-value    11.4253476261342     
   GDM::      : max scaling in EWCs is          2.82842712474619     
   GDM::      : max rotation in step is        0.200900813410853     
   GDM::        grad.step =  -1.712747350809956E-002
   ------- Leaving GDM -- hopefully with a step in the right direction! --------
 
   63    -670.3552352384      1.03E-01  Gap = -172.38 eV  Descent step
 
   ------------------- Entering Geometric Direct Minimization ------------------
   GDM::trust : actual energy change is        1.630241918633146E-002
   GDM::trust : predicted energy change was   -4.367460303475057E-002
   GDM::trust : updated trust radius is        0.108900000000000     
   GDM::search:  On step            1 .  The current bracket is:
       left   : x =  0.0000E+00, e =      -670.3552352384, g = -0.7262E-01
       current: x =  0.2359E+00, e =      -670.3389328193, g =  0.2243E+00
       right  : x =  0.1000E+04, e =      1000.0000000000, g =  0.1000E+04
       next   : x =  0.6042E-01
   GDM::      : max rotation in step is        5.146476823754872E-002
   ------- Leaving GDM -- hopefully with a step in the right direction! --------
 
   64    -670.3389328193      2.61E-02  Gap = -172.38 eV  Line search: overstep
 
   ------------------- Entering Geometric Direct Minimization ------------------
   GDM::trust : actual energy change is       -2.377722235223700E-003
   GDM::trust : predicted energy change was   -4.367460303475057E-002
   GDM::trust : updated trust radius is        0.108900000000000     
   GDM:         diagonal hessian shift is      0.000000000000000E+000
   GDM::PreWSS: input subspace size is                 19
   GDM::PreWSS: working subspace size set to           18
   GDM::PrEWSS: # of linearly dependent vectors =            0
   GDM::PrEWSS: Max dev from orthonormality =   1.466337468114531E-012
   GDM::BFGS:   lowest Hinv e-value    0.188462286426827     
   GDM::BFGS:   highest Hinv e-value    10.5560736924246     
   GDM::trust : dogleg step length is          0.108900000000000     
   GDM::      : max scaling in EWCs is          2.82842712474619     
   GDM::      : max rotation in step is       -0.112013613994426     
   GDM::        grad.step =  -4.375275971704360E-003
   ------- Leaving GDM -- hopefully with a step in the right direction! --------
 
   65    -670.3576129607      2.57E-02  Gap = -172.38 eV  Dog-leg BFGS step
 
   ------------------- Entering Geometric Direct Minimization ------------------
   GDM::trust : actual energy change is        2.541966442777266E-004
   GDM::trust : predicted energy change was   -5.553272500459023E-003
   GDM::trust : updated trust radius is        3.593700000000000E-002
   GDM::search:  On step            1 .  The current bracket is:
       left   : x =  0.0000E+00, e =      -670.3576129607, g = -0.2552E-01
       current: x =  0.1715E+00, e =      -670.3573587640, g =  0.2948E-01
       right  : x =  0.1000E+04, e =      1000.0000000000, g =  0.1000E+04
       next   : x =  0.8103E-01
   GDM::      : max rotation in step is       -5.293156634317952E-002
   ------- Leaving GDM -- hopefully with a step in the right direction! --------
 
   66    -670.3573587640      5.72E-03  Gap = -172.38 eV  Line search: overstep
 
   ------------------- Entering Geometric Direct Minimization ------------------
[...]
   GDM::PrEWSS: Max dev from orthonormality =   2.629840789580840E-015
   GDM::BFGS:   lowest Hinv e-value    0.196679470085464     
   GDM::BFGS:   highest Hinv e-value    1.48101930642063     
   GDM::      : max scaling in EWCs is          2.54311282598593     
   GDM::      : max rotation in step is       -3.141993858782761E-005
   GDM::        grad.step =  -1.108689085282589E-009
   ------- Leaving GDM -- hopefully with a step in the right direction! --------
 
   11    -670.4517102706      2.38E-05  Gap = 19.92 eV  Normal BFGS step
 
   ------------------- Entering Geometric Direct Minimization ------------------
   GDM::trust : actual energy change is       -4.037019607494585E-010
   GDM::trust : predicted energy change was   -1.663033627923885E-009
   GDM::trust : updated trust radius is        0.330000000000000     
   GDM:         diagonal hessian shift is      0.000000000000000E+000
   GDM::PreWSS: input subspace size is                  9
   GDM::PreWSS: working subspace size set to            9
   GDM::PrEWSS: # of linearly dependent vectors =            8
   GDM::PrEWSS: Max dev from orthonormality =   4.378442053365461E-015
   GDM::BFGS:   lowest Hinv e-value    0.195429961652651     
   GDM::BFGS:   highest Hinv e-value    1.50454424762550     
   GDM::      : max scaling in EWCs is          2.54322571747732     
   GDM::      : max rotation in step is       -3.335731946874729E-006
   GDM::        grad.step =  -2.163512467370426E-010
   ------- Leaving GDM -- hopefully with a step in the right direction! --------
 
   12    -670.4517102710      5.19E-06  Gap = 19.92 eV  Normal BFGS step
 
   ------------------- Entering Geometric Direct Minimization ------------------
   GDM::trust : actual energy change is       -8.537881512893364E-011
   GDM::trust : predicted energy change was   -3.245268701055638E-010
   GDM::trust : updated trust radius is        0.330000000000000     
   GDM:         diagonal hessian shift is      0.000000000000000E+000
   GDM::PreWSS: input subspace size is                 10
   GDM::PreWSS: working subspace size set to           10
   GDM::PrEWSS: # of linearly dependent vectors =            9
   GDM::PrEWSS: Max dev from orthonormality =   1.237898672457050E-014
   GDM::BFGS:   lowest Hinv e-value    0.194063359577673     
   GDM::BFGS:   highest Hinv e-value    1.54778284360833     
   GDM::      : max scaling in EWCs is          2.54325314745590     
   GDM::      : max rotation in step is       -2.322295391705219E-006
   GDM::        grad.step =  -2.433881877291715E-011
   ------- Leaving GDM -- hopefully with a step in the right direction! --------
 
   13    -670.4517102711      1.67E-06  Gap = 19.92 eV  Normal BFGS step
 
   ------------------- Entering Geometric Direct Minimization ------------------
   GDM::trust : actual energy change is       -1.261923898709938E-011
   GDM::trust : predicted energy change was   -3.650822815937572E-011
   GDM::trust : updated trust radius is        0.330000000000000     
   GDM:         diagonal hessian shift is      0.000000000000000E+000
   GDM::PreWSS: input subspace size is                 11
   GDM::PreWSS: working subspace size set to           11
   GDM::PrEWSS: # of linearly dependent vectors =           10
   GDM::PrEWSS: Max dev from orthonormality =   2.852579283896262E-014
   GDM::BFGS:   lowest Hinv e-value    0.195665702284496     
   GDM::BFGS:   highest Hinv e-value    1.83175339193226     
   GDM::      : max scaling in EWCs is          2.54324204064505     
   GDM::      : max rotation in step is       -1.975867822463842E-006
   GDM::        grad.step =  -2.444689273957433E-012
   ------- Leaving GDM -- hopefully with a step in the right direction! --------
 
   14    -670.4517102711      5.29E-07  Gap = 19.92 eV  Normal BFGS step
 
   ------------------- Entering Geometric Direct Minimization ------------------
   GDM::trust : actual energy change is       -1.591615728102624E-012
   GDM::trust : predicted energy change was   -3.667033910936151E-012
   GDM::trust : updated trust radius is        0.330000000000000     
   GDM:         diagonal hessian shift is      0.000000000000000E+000
   GDM::PreWSS: input subspace size is                 12
   GDM::PreWSS: working subspace size set to           12
   GDM::PrEWSS: # of linearly dependent vectors =           11
   GDM::PrEWSS: Max dev from orthonormality =   7.869399576421188E-014
   GDM::BFGS:   lowest Hinv e-value    0.189257117719479     
   GDM::BFGS:   highest Hinv e-value    2.58352532144855     
   GDM::      : max scaling in EWCs is          2.54324062509496     
   GDM::      : max rotation in step is       -1.087710841541745E-006
   GDM::        grad.step =  -5.238670641266426E-013
   ------- Leaving GDM -- hopefully with a step in the right direction! --------
 
   15    -670.4517102711      3.94E-07  Gap = 19.92 eV  Normal BFGS step
 
   ------------------- Entering Geometric Direct Minimization ------------------
   GDM::trust : actual energy change is       -1.023181539494544E-012
   GDM::trust : predicted energy change was   -7.858005961899639E-013
   GDM::trust : updated trust radius is        0.330000000000000     
   GDM:         diagonal hessian shift is      0.000000000000000E+000
   GDM::PreWSS: input subspace size is                 13
   GDM::PreWSS: working subspace size set to           13
   GDM::PrEWSS: # of linearly dependent vectors =           12
   GDM::PrEWSS: Max dev from orthonormality =   2.330123941018947E-013
   GDM::BFGS:   lowest Hinv e-value    0.191957372669348     
   GDM::BFGS:   highest Hinv e-value    2.57592855952765     
   GDM::      : max scaling in EWCs is          2.54324228924334     
   GDM::      : max rotation in step is       -1.438041276725297E-007
   GDM::        grad.step =  -5.343897340728854E-014
   ------- Leaving GDM -- hopefully with a step in the right direction! --------
 
   16    -670.4517102711      5.92E-08  Gap = 19.92 eV  Normal BFGS step
 
   ------------------- Entering Geometric Direct Minimization ------------------
   GDM::trust : actual energy change is        1.364242052659392E-012
   GDM::trust : predicted energy change was   -8.015846011093281E-014
   GDM::trust : updated trust radius is        0.108900000000000     
   GDM::WARNING energy changes are now smaller than effective accuracy.
   GDM::        calculation will continue, but THRESH should be increased
   GDM::        or SCF_CONVERGENCE decreased.
   GDM::        effective_thresh =   2.700000000000000E-010
   GDM:         diagonal hessian shift is      0.000000000000000E+000
   GDM::PreWSS: input subspace size is                 14
   GDM::PreWSS: working subspace size set to           14
   GDM::PrEWSS: # of linearly dependent vectors =           13
   GDM::PrEWSS: Max dev from orthonormality =   6.134329155749185E-013
   GDM::BFGS:   lowest Hinv e-value    0.186991376343200     
   GDM::BFGS:   highest Hinv e-value    2.53800312106222     
   GDM::      : max scaling in EWCs is          2.54324227657180     
   GDM::      : max rotation in step is        1.151027289722393E-007
   GDM::        grad.step =  -1.068869079564918E-014
   ------- Leaving GDM -- hopefully with a step in the right direction! --------
 
   17    -670.4517102711      5.50E-08  Gap = 19.92 eV  Normal BFGS step
 
   ------------------- Entering Geometric Direct Minimization ------------------
   GDM::trust : actual energy change is       -1.250555214937776E-012
   GDM::trust : predicted energy change was   -1.603303619347378E-014
   GDM::trust : updated trust radius is        0.330000000000000     
   GDM:         diagonal hessian shift is      0.000000000000000E+000
   GDM::PreWSS: input subspace size is                 15
   GDM::PreWSS: working subspace size set to           15
   GDM::PrEWSS: # of linearly dependent vectors =           14
   GDM::PrEWSS: Max dev from orthonormality =   6.262364758702343E-013
   GDM::BFGS:   lowest Hinv e-value    0.188687224489644     
   GDM::BFGS:   highest Hinv e-value    2.50531454364635     
   GDM::      : max scaling in EWCs is          2.54324194833237     
   GDM::      : max rotation in step is       -3.685852917711902E-008
   GDM::        grad.step =  -1.392771489124349E-015
   ------- Leaving GDM -- hopefully with a step in the right direction! --------
 
   18    -670.4517102711      8.40E-09 Convergence criterion met
 ---------------------------------------
 One-Electron    Energy = -1379.9167163378
 Total Coulomb   Energy =   545.0902844621
 Alpha Exchange  Energy =    -5.6253931218
 Beta  Exchange  Energy =    -5.3460846051
 DFT   Exchange  Energy =   -43.8356063618
 DFT Correlation Energy =    -2.4325409068
 Nuclear Repu.   Energy =   221.6143466002
 Nuclear Attr.   Energy = -2024.9699080324
 Kinetic         Energy =   645.0531916945
 <S^2> = 2.0214
 SCF time:  CPU 81.61 s  wall 11.08 s
 SCF   energy in the final basis set = -670.4517102711
 Total energy in the final basis set = -670.4517102711
 
 --------------------------------------------------------------
 
                    Orbital Energies (a.u.)
 --------------------------------------------------------------
 
 Alpha MOs
 -- Occupied --
-88.996 -19.254 -19.160 -19.116  -8.062  -6.026  -6.025  -6.021
 -2.056  -1.279  -1.267  -1.261  -1.096  -0.892  -0.840  -0.732
 -0.495  -0.483  -0.480  -0.373  -0.345  -0.338  -0.314  -0.308
 -0.303  -0.286  -0.284
 -- Virtual --
 -0.122  -0.076  -0.059  -0.023  -0.018   0.002   0.003   0.028
  0.039   0.055   0.057   0.067   0.084   0.103   0.104   0.157
  0.162   0.169   0.194   0.200   0.208   0.213   0.230   0.232
  0.251   0.259   0.260   0.275   0.280   0.307   0.359   0.385
  0.450   0.451   0.477   0.496   0.558   0.660   0.689   0.713
  0.728   0.836   1.007   1.111   1.133   1.166   1.189   1.195
  1.221   1.227   1.250   1.278   1.609   1.649   1.710   1.739
  1.762   1.792   1.806   1.818   1.821   1.843   1.848   1.857
  1.869   1.887   1.946   1.963   2.115   2.530  13.042
 
 Beta MOs
 -- Occupied --
-88.989 -19.241 -19.146 -19.115  -8.055  -6.021  -6.010  -6.009
 -2.058  -1.280  -1.269  -1.263  -1.069  -0.857  -0.834  -0.681
 -0.470  -0.448  -0.426  -0.340  -0.325  -0.321  -0.303  -0.293
 -0.260
 -- Virtual --
 -0.182  -0.177  -0.122  -0.074  -0.047  -0.021  -0.012   0.002
  0.007   0.031   0.040   0.061   0.061   0.070   0.089   0.104
  0.107   0.162   0.167   0.172   0.198   0.202   0.212   0.215
  0.234   0.234   0.254   0.259   0.262   0.278   0.284   0.308
  0.365   0.387   0.462   0.478   0.486   0.510   0.572   0.703
  0.733   0.751   0.768   0.859   1.031   1.136   1.149   1.179
  1.197   1.197   1.234   1.242   1.267   1.286   1.624   1.660
  1.736   1.753   1.783   1.811   1.817   1.838   1.845   1.849
  1.854   1.872   1.884   1.904   1.956   1.974   2.121   2.545
 13.042
 --------------------------------------------------------------
 
          Ground-State Mulliken Net Atomic Charges

     Atom                 Charge (a.u.)    Spin (a.u.)
  --------------------------------------------------------
      1 Zr                    1.438910      -0.135484
      2 O                    -0.642111       0.486801
      3 S                     0.404937       1.229521
      4 O                    -0.617409       0.050527
      5 O                    -0.584327       0.368635
  --------------------------------------------------------
  Sum of atomic charges =     0.000000
  Sum of spin   charges =     2.000000

 -----------------------------------------------------------------
                    Cartesian Multipole Moments
 -----------------------------------------------------------------
    Charge (ESU x 10^10)
                 0.0000
    Dipole Moment (Debye)
         X      -4.8977      Y       0.5038      Z       0.0000
       Tot       4.9236
    Quadrupole Moments (Debye-Ang)
        XX     -60.1487     XY       1.3150     YY     -58.3472
        XZ       0.0000     YZ       0.0000     ZZ     -44.1341
    Octopole Moments (Debye-Ang^2)
       XXX      27.0367    XXY      22.2153    XYY     -14.0308
       YYY      24.7029    XXZ       0.0000    XYZ       0.0000
       YYZ       0.0000    XZZ      12.3103    YZZ      -0.6681
       ZZZ       0.0000
    Hexadecapole Moments (Debye-Ang^3)
      XXXX    -675.0998   XXXY     135.4408   XXYY    -196.5346
      XYYY     145.6701   YYYY    -422.3204   XXXZ       0.0000
      XXYZ       0.0000   XYYZ       0.0000   YYYZ       0.0000
      XXZZ    -113.4256   XYZZ      41.8914   YYZZ     -73.0918
      XZZZ       0.0000   YZZZ       0.0000   ZZZZ     -47.2295
 -----------------------------------------------------------------
 Calculating analytic gradient of the SCF energy
 Gradient of SCF Energy
            1           2           3           4           5
    1  -0.0001558   0.0000293   0.0000630   0.0000252   0.0000383
    2   0.0000085   0.0000781   0.0000247  -0.0000178  -0.0000935
    3  -0.0000000  -0.0000000  -0.0000000   0.0000000   0.0000000
 Max gradient component =       1.558E-04
 RMS gradient           =       5.601E-05
 Gradient time:  CPU 14.08 s  wall 2.26 s
 Geometry Optimization Parameters
   NAtoms,    NIC,     NZ,  NCons,   NDum,   NFix, NCnnct, MaxDiis
        5      20       0       0       0       0       0       0

 Cartesian Hessian Update
 Hessian Updated using BFGS Update


** GEOMETRY OPTIMIZATION IN DELOCALIZED INTERNAL COORDINATES **
   Searching for a Minimum

   Optimization Cycle:  25

                       Coordinates (Angstroms)
     ATOM                X               Y               Z
      1  Zr        0.3564383063   -0.5954050167    0.0000000000
      2  O         1.0007810673    1.1621217171    0.0000000000
      3  S        -2.0150747922    1.2193624709    0.0000000000
      4  O         1.6384735382   -1.8475670262    0.0000000000
      5  O        -1.8936681196   -0.3587221452    0.0000000000
   Point Group: c1    Number of degrees of freedom:     9


   Energy is   -670.451710271

 Hessian Updated using BFGS Update

  7 Hessian modes will be used to form the next step
  Hessian Eigenvalues:
     0.022127    0.031557    0.119588    0.263105    0.523860    0.651784
     0.865890

 Minimum Search - Taking Simple RFO Step
 Searching for Lamda that Minimizes Along All modes
 Value Taken    Lamda =   0.00000000
 Step Taken.  Stepsize is  0.003376

                             Maximum     Tolerance    Cnvgd?
         Gradient           0.000129      0.000300     YES
         Displacement       0.001944      0.001200      NO
         Energy change      0.000000      0.000001     YES


                       Distance Matrix (Angstroms)
             Zr(  1)   O (  2)   S (  3)   O (  4)
   O (  2)  1.871918
   S (  3)  2.986211  3.016399
   O (  4)  1.792073  3.076504  4.770165
   O (  5)  2.262520  3.269679  1.582748  3.833104
 
 Final energy is   -670.451710271101     


 ******************************
 **  OPTIMIZATION CONVERGED  **
 ******************************

                       Coordinates (Angstroms)
     ATOM                X               Y               Z
      1  Zr        0.3564383063   -0.5954050167    0.0000000000
      2  O         1.0007810673    1.1621217171    0.0000000000
      3  S        -2.0150747922    1.2193624709    0.0000000000
      4  O         1.6384735382   -1.8475670262    0.0000000000
      5  O        -1.8936681196   -0.3587221452    0.0000000000

Z-matrix Print:
$molecule
0 3
Zr
O  1 1.792073
O  1 1.871918 2 114.190728
O  1 2.262520 2 141.680087 3 -180.000000 0
S  4 1.582748 1 100.403980 2 -180.000000 0
$end

 
 --------------------------------------------------------------
 
                    Orbital Energies (a.u.)
 --------------------------------------------------------------
 
 Alpha MOs
 -- Occupied --
-88.996 -19.254 -19.160 -19.116  -8.062  -6.026  -6.025  -6.021
 -2.056  -1.279  -1.267  -1.261  -1.096  -0.892  -0.840  -0.732
 -0.495  -0.483  -0.480  -0.373  -0.345  -0.338  -0.314  -0.308
 -0.303  -0.286  -0.284
 -- Virtual --
 -0.122  -0.076  -0.059  -0.023  -0.018   0.002   0.003   0.028
  0.039   0.055   0.057   0.067   0.084   0.103   0.104   0.157
  0.162   0.169   0.194   0.200   0.208   0.213   0.230   0.232
  0.251   0.259   0.260   0.275   0.280   0.307   0.359   0.385
  0.450   0.451   0.477   0.496   0.558   0.660   0.689   0.713
  0.728   0.836   1.007   1.111   1.133   1.166   1.189   1.195
  1.221   1.227   1.250   1.278   1.609   1.649   1.710   1.739
  1.762   1.792   1.806   1.818   1.821   1.843   1.848   1.857
  1.869   1.887   1.946   1.963   2.115   2.530  13.042
 
 Beta MOs
 -- Occupied --
-88.989 -19.241 -19.146 -19.115  -8.055  -6.021  -6.010  -6.009
 -2.058  -1.280  -1.269  -1.263  -1.069  -0.857  -0.834  -0.681
 -0.470  -0.448  -0.426  -0.340  -0.325  -0.321  -0.303  -0.293
 -0.260
 -- Virtual --
 -0.182  -0.177  -0.122  -0.074  -0.047  -0.021  -0.012   0.002
  0.007   0.031   0.040   0.061   0.061   0.070   0.089   0.104
  0.107   0.162   0.167   0.172   0.198   0.202   0.212   0.215
  0.234   0.234   0.254   0.259   0.262   0.278   0.284   0.308
  0.365   0.387   0.462   0.478   0.486   0.510   0.572   0.703
  0.733   0.751   0.768   0.859   1.031   1.136   1.149   1.179
  1.197   1.197   1.234   1.242   1.267   1.286   1.624   1.660
  1.736   1.753   1.783   1.811   1.817   1.838   1.845   1.849
  1.854   1.872   1.884   1.904   1.956   1.974   2.121   2.545
 13.042
 --------------------------------------------------------------
 
          Ground-State Mulliken Net Atomic Charges

     Atom                 Charge (a.u.)    Spin (a.u.)
  --------------------------------------------------------
      1 Zr                    1.438910      -0.135484
      2 O                    -0.642111       0.486801
      3 S                     0.404937       1.229521
      4 O                    -0.617409       0.050527
      5 O                    -0.584327       0.368635
  --------------------------------------------------------
  Sum of atomic charges =     0.000000
  Sum of spin   charges =     2.000000

 -----------------------------------------------------------------
                    Cartesian Multipole Moments
 -----------------------------------------------------------------
    Charge (ESU x 10^10)
                 0.0000
    Dipole Moment (Debye)
         X      -4.8977      Y       0.5038      Z       0.0000
       Tot       4.9236
    Quadrupole Moments (Debye-Ang)
        XX     -60.1487     XY       1.3150     YY     -58.3472
        XZ       0.0000     YZ       0.0000     ZZ     -44.1341
    Octopole Moments (Debye-Ang^2)
       XXX      27.0367    XXY      22.2153    XYY     -14.0308
       YYY      24.7029    XXZ       0.0000    XYZ       0.0000
       YYZ       0.0000    XZZ      12.3103    YZZ      -0.6681
       ZZZ       0.0000
    Hexadecapole Moments (Debye-Ang^3)
      XXXX    -675.0998   XXXY     135.4408   XXYY    -196.5346
      XYYY     145.6701   YYYY    -422.3204   XXXZ       0.0000
      XXYZ       0.0000   XYYZ       0.0000   YYYZ       0.0000
      XXZZ    -113.4256   XYZZ      41.8914   YYZZ     -73.0918
      XZZZ       0.0000   YZZZ       0.0000   ZZZZ     -47.2295
 -----------------------------------------------------------------
Archival summary:
1\1\hpc3745\OPT\ProcedureUnspecified\BasisUnspecified\r113(\liqiuy\FriJan1719:53:152020FriJan1719:53:152020\0\\#,OPT,ProcedureUnspecified,BasisUnspecified,\\28,3\Zr\O,1,1.79207\O,1,1.87192,2,114.191\O,1,2.26252,2,141.68,3,-180,0\S,4,1.58275,1,100.404,2,-180,0\\\@

 Total job time:  479.80s(wall), 3091.21s(cpu) 
 Fri Jan 17 19:53:15 2020

        *************************************************************
        *                                                           *
        *  Thank you very much for using Q-Chem.  Have a nice day.  *
        *                                                           *
        *************************************************************


0 sent ACK to 0 
now end server 0 ... 
cleanup process ... done
