
Running Job 1 of 2 ZrOx.in
qchem ZrOx.in_31684.0 /tmp/5732719.priya/ZrOx.save/ 1
/usr/usc/qchem/4.4/bin/mpi/mpirun_qchem -machinefile /usr/usc/qchem/4.4/bin/mpi/machines -np 1 /usr/usc/qchem/4.4/exe/qcprog.exe ZrOx.in_31684.0 /tmp/5732719.priya/ZrOx.save/

Process 0 of 1 is on hpc3922.hpcc.usc.edu - thread support 0
initial socket setup ...start
initial socket setup ...done 
now start server 0 ... 
Check license passed

                  Welcome to Q-Chem
     A Quantum Leap Into The Future Of Chemistry


 Q-Chem 4.4, Q-Chem, Inc., Pleasanton, CA (2016)

 Y. Shao,  Z. Gan,  E. Epifanovsky,  A. T. B. Gilbert,  M. Wormit,  
 J. Kussmann,  A. W. Lange,  A. Behn,  J. Deng,  X. Feng,  D. Ghosh,  
 M. Goldey,  P. R. Horn,  L. D. Jacobson,  I. Kaliman,  F.Rob,  
 R. Z. Khaliullin,  T. Kus,  A. Landau,  J. Liu,  E. I. Proynov,  Y. M. Rhee,  
 R. M. Richard,  M. A. Rohrdanz,  R. P. Steele,  E. J. Sundstrom,  
 H. L. Woodcock III,  P. M. Zimmerman,  D. Zuev,  B. Albrecht,  E. Alguire,  
 B. Austin,  S. A. Baeppler,  G. J. O. Beran,  Y. A. Bernard,  E. Berquist,  
 K. Brandhorst,  K. B. Bravaya,  S. T. Brown,  D. Casanova,  C.-M. Chang,  
 Y. Chen,  S. H. Chien,  K. D. Closser,  M. P. Coons,  D. L. Crittenden,  
 S. Dasgupta,  M. Diedenhofen,  R. A. DiStasio Jr.,  H. Do,  A. D. Dutoi,  
 R. G. Edgar,  P.-T. Fang,  S. Fatehi,  Q. Feng,  L. Fusti-Molnar,  
 A. Ghysels,  A. Golubeva-Zadorozhnaya,  J. Gomes,  A. Gunina,  
 M. W. D. Hanson-Heine,  P. H. P. Harbach,  A. W. Hauser,  E. G. Hohenstein,  
 Z. C. Holden,  K. Hui,  T.-C. Jagau,  H. Ji,  B. Kaduk,  K. Khistyaev,  
 Jaehoon Kim,  Jihan Kim,  R. A. King,  P. Klunzinger,  D. Kosenkov,  
 T. Kowalczyk,  C. M. Krauter,  A. Kunitsa,  K. U. Lao,  A. Laurent,  
 K. V. Lawler,  D. Lefrancois,  S. Lehtola,  S. V. Levchenko,  C. Y. Lin,  
 Y.-S. Lin,  F. Liu,  E. Livshits,  R. C. Lochan,  A. Luenser,  P. Manohar,  
 S. F. Manzer,  S.-P. Mao,  Y. Mao,  N. Mardirossian,  A. V. Marenich,  
 L. A. Martinez-Martinez,  S. A. Maurer,  N. J. Mayhall,  J.-M. Mewes,  
 A. F. Morrison,  K. Nanda,  C. M. Oana,  R. Olivares-Amaya,  D. P. O'Neill,  
 J. A. Parkhill,  T. M. Perrine,  R. Peverati,  P. A. Pieniazek,  F. Plasser,  
 A. Prociuk,  D. R. Rehn,  E. Rosta,  N. J. Russ,  N. Sergueev,  
 S. M. Sharada,  S. Sharma,  D. W. Small,  A. Sodt,  T. Stauch,  T. Stein,  
 D. Stuck,  Y.-C. Su,  A. J. W. Thom,  T. Tsuchimochi,  L. Vogt,  O. Vydrov,  
 T. Wang,  M. A. Watson,  J. Wenzel,  A. White,  C. F. Williams,  
 V. Vanovschi,  S. Yeganeh,  S. R. Yost,  Z.-Q. You,  I. Y. Zhang,  X. Zhang,  
 Y. Zhao,  B. R. Brooks,  G. K. L. Chan,  D. M. Chipman,  C. J. Cramer,  
 W. A. Goddard III,  M. S. Gordon,  W. J. Hehre,  A. Klamt,  
 H. F. Schaefer III,  M. W. Schmidt,  C. D. Sherrill,  D. G. Truhlar,  
 A. Warshel,  X. Xu,  A. Aspuru-Guzik,  R. Baer,  A. T. Bell,  N. A. Besley,  
 J.-D. Chai,  A. Dreuw,  B. D. Dunietz,  T. R. Furlani,  S. R. Gwaltney,  
 C.-P. Hsu,  Y. Jung,  J. Kong,  D. S. Lambrecht,  W. Liang,  C. Ochsenfeld,  
 V. A. Rassolov,  L. V. Slipchenko,  J. E. Subotnik,  T. Van Voorhis,  
 J. M. Herbert,  A. I. Krylov,  P. M. W. Gill,  M. Head-Gordon

 Contributors to earlier versions of Q-Chem not listed above: 
 R. D. Adamson,  J. Baker,  E. F. C. Byrd,  A. K. Chakraborty,  C.-L. Cheng,  
 H. Dachsel,  R. J. Doerksen,  G. Hawkins,  A. Heyden,  S. Hirata,  
 G. Kedziora,  F. J. Keil,  C. Kelley,  P. P. Korambath,  W. Kurlancheek,  
 A. M. Lee,  M. S. Lee,  D. Liotard,  I. Lotan,  P. E. Maslen,  N. Nair,  
 D. Neuhauser,  R. Olson,  B. Peters,  J. Ritchie,  N. E. Schultz,  
 N. Shenvi,  A. C. Simmonett,  K. S. Thanthiriwatte,  Q. Wu,  W. Zhang

 Please cite Q-Chem as follows:
 Y. Shao et al., Mol. Phys. 113, 184-215 (2015)
 DOI: 10.1080/00268976.2014.952696

 Q-Chem 4.4.1 for Intel X86 Linux

 Parts of Q-Chem use Armadillo 5.200.1 (Boston Tea Smuggler).
 http://arma.sourceforge.net/

 Q-Chem begins on Fri Jan 17 19:45:09 2020  

Host: 
0

     Scratch files written to /tmp/5732719.priya/ZrOx.save//
 Jul2716 11668_ 21447  21445 5558   
 Parallel job on  1  processors
Processing $rem in /usr/usc/qchem/4.4/config/preferences.
 MEM_TOTAL  2000 

Checking the input file for inconsistencies... 	...done.

--------------------------------------------------------------
User input:
--------------------------------------------------------------
$comment
--------------------------------------------------------
A SINGLE POINT DFT CALCULATION WITH BASIS SET PROJECTION
--------------------------------------------------------
$end

$molecule
0 3
Zr 0.31039 -0.00170 0.00000
O 1.58457 1.14797 0.00000
O -1.43185 0.65722 0.00000
O 0.70358 -1.67036 0.00000
O -2.48567 -0.12215 0.00000
$end

$rem
JOBTYPE   SP
METHOD   B3LYP
BASIS   GEN
ECP   GEN
MAX_SCF_CYCLES   200
SCF_CONVERGENCE 8
SCF_PRINT 1
PDB_PRINT 2
THRESH 14
VARTHRESH 14
INCDFT FALSE
SYMMETRY False
Sym_ignore True
SCF_ALGORITHM GDM
XC_GRID 000128000302
DFT_D           EMPIRICAL_GRIMME3
DFT_D3_S6       1000
DFT_D3_RS6     1261
DFT_D3_S8      1703
DFT_D3_3BODY    FALSE
$end

$basis
O
6-31+G**
****
S
6-31+G**
****
Zr
LanL2DZ
****
$end

$ecp
Zr
LanL2DZ
****
$end

--------------------------------------------------------------
 ----------------------------------------------------------------
             Standard Nuclear Orientation (Angstroms)
    I     Atom           X                Y                Z
 ----------------------------------------------------------------
    1      Zr      0.3103900000    -0.0017000000     0.0000000000
    2      O       1.5845700000     1.1479700000     0.0000000000
    3      O      -1.4318500000     0.6572200000     0.0000000000
    4      O       0.7035800000    -1.6703600000     0.0000000000
    5      O      -2.4856700000    -0.1221500000     0.0000000000
 ----------------------------------------------------------------
 Nuclear Repulsion Energy =   181.2658697391 hartrees
 There are       23 alpha and       21 beta electrons

 Q-Chem warning in module /home/scratch/svnadmin/11668_zgan/qchem/forms1/BasisType.C, line 1419:

 Setting pure/cartesian flag to 2111 for general basis


 Requested basis set is non-standard
 There are 28 shells and 94 basis functions

 Total QAlloc Memory Limit   2000 MB
 Mega-Array Size        61 MB
 MEM_STATIC part        62 MB

                       Distance Matrix (Angstroms)
             Zr(  1)   O (  2)   O (  3)   O (  4)
   O (  2)  1.716181
   O (  3)  1.862680  3.056080
   O (  4)  1.714358  2.952817  3.158748
   O (  5)  2.798653  4.263808  1.310708  3.545176
 
 A cutoff of  1.0D-14 yielded    394 shell pairs
 There are      4559 function pairs (      5172 Cartesian)
 
 -------------------------------------------------------
 OpenMP Integral Computing Module                       
 Release: version 1.0, May 2013, Q-Chem Inc. Pittsburgh 
 -------------------------------------------------------
 Integral Job Info:
 Integral job number is                      11
 Integral operator is                         1
 short-range coefficients                     0
 long-range coefficients              100000000
 Omega coefficients                           0
 if combine SR and LR in K                    0
 Integral screening is                        0
 Integral computing path is                   2
 max size of driver memory is            800000
 size of driver memory is                593474
 size of scratch memory is             11771240
 max col of scratch BK array               1296
 max len of scratch array in speh3          155
 max len of scratch index in speh4           18
 max int batch size is                      520
 min int batch size is                       52
 fixed nKL is                                52
 max L of basis functions is                  2
 order of int derivative is                   0
 number of shells is                         28
 number of basis is                         100
 number of cartesian basis is               100
 number of contracted shell pairs           394
 number of primitive shell pairs           1806
 maxK2 (contraction) of shell pair           36
 max number of K2 of shell pair               1
 max number of CS2 of shell pair             42
 max number of PS2 of shell pair            204
 mem total for path MDJ                   21208
 -------------------------------------------------------
 Requested basis set is non-standard
 Compound shells will be simplified
 There are 40 shells and 94 basis functions
 A cutoff of  1.0D-14 yielded    801 shell pairs
 There are      4523 function pairs (      5136 Cartesian)
 Smallest overlap matrix eigenvalue = 4.10E-04

 Scale SEOQF with 1.000000e-01/1.000000e-01/1.000000e-01

 Standard Electronic Orientation quadrupole field applied
 Nucleus-field energy     =     0.0000000059 hartrees
 Guess MOs from core Hamiltonian diagonalization
 An unrestricted hybrid HF-DFT SCF calculation will be
 performed using Geometric Direct Minimization
 Exchange:     0.2000 Hartree-Fock + 0.0800 Slater + 0.7200 B88
 Correlation:  0.1900 VWN1RPA + 0.8100 LYP
 Using Euler-Maclaurin-Lebedev (128,302) quadrature formula
 Dispersion:   Grimme D3
 SCF converges when RMS gradient is below 1.0E-08
 Maximum number of minimization steps = 200
 using 12 threads for integral computing 
 -------------------------------------------------------
 OpenMP BLAS3 based DFT computing Module                
 Release: version 1.0, May 2013, Q-Chem Inc. Pittsburgh 
 -------------------------------------------------------
 
   ------------------- Entering Geometric Direct Minimization ------------------
   GDM:         diagonal hessian shift is      0.000000000000000E+000
   GDM::PreWSS: input subspace size is                  1
   GDM::PreWSS: working subspace size set to            1
   GDM::PrEWSS: # of linearly dependent vectors =            0
   GDM::PrEWSS: Max dev from orthonormality =   4.440892098500626E-016
   GDM::BFGS:   lowest Hinv e-value     1.00000000000000     
   GDM::BFGS:   highest Hinv e-value    1.00000000000000     
   GDM::      : max scaling in EWCs is          1.41421356237309     
   GDM::      : max rotation in step is        9.943669050324194E-002
   GDM::        grad.step =   -3.13880218966460     
   ------- Leaving GDM -- hopefully with a step in the right direction! --------
 
 ---------------------------------------
  Cycle       Energy        RMS Gradient
 ---------------------------------------
    1    -326.0437047884      2.03E+00  Gap = 0.00 eV  Descent step
 
   ------------------- Entering Geometric Direct Minimization ------------------
   GDM::trust : actual energy change is        -3.09836180803802     
   GDM::trust : predicted energy change was   -0.163350000000000     
   GDM::trust : updated trust radius is        0.330000000000000     
   GDM::search:  On step            1 .  The current bracket is:
       left   : x =  0.0000E+00, e =      -326.0437047884, g = -0.8211E+01
       current: x =  0.3823E+00, e =      -329.1420665964, g = -0.7934E+01
       right  : x =  0.1000E+04, e =      1000.0000000000, g =  0.1000E+04
       next   : x =  0.3823E+01
   GDM::      : max rotation in step is        0.994366905032419     
   ------- Leaving GDM -- hopefully with a step in the right direction! --------
 
    2    -329.1420665964      1.27E+00  Gap = -5.31 eV  Line search: understep
 
   ------------------- Entering Geometric Direct Minimization ------------------
   GDM::trust : actual energy change is        -9.13272355802883     
   GDM::trust : predicted energy change was   -0.163350000000000     
   GDM::trust : updated trust radius is        0.330000000000000     
   GDM:         diagonal hessian shift is      0.000000000000000E+000
   GDM::PreWSS: input subspace size is                  2
   GDM::PreWSS: working subspace size set to            2
   GDM::PrEWSS: # of linearly dependent vectors =            0
   GDM::PrEWSS: Max dev from orthonormality =   1.158795281952507E-015
   GDM::BFGS:   lowest Hinv e-value    0.263207116087819     
   GDM::BFGS:   highest Hinv e-value    1.72847723830492     
   GDM::      : max scaling in EWCs is          1.41421356237309     
   GDM::      : max rotation in step is        0.141264159382393     
   GDM::        grad.step =   -2.52337271402566     
   ------- Leaving GDM -- hopefully with a step in the right direction! --------
 
    3    -335.1764283464      2.31E+00  Gap = -5.31 eV  Descent step
 
   ------------------- Entering Geometric Direct Minimization ------------------
   GDM::trust : actual energy change is        -2.38471091868149     
   GDM::trust : predicted energy change was   -0.283476216853924     
   GDM::trust : updated trust radius is        0.330000000000000     
   GDM:         diagonal hessian shift is      0.000000000000000E+000
   GDM::PreWSS: input subspace size is                  3
   GDM::PreWSS: working subspace size set to            3
   GDM::PrEWSS: # of linearly dependent vectors =            0
   GDM::PrEWSS: Max dev from orthonormality =   2.093811235504006E-014
   GDM::BFGS:   lowest Hinv e-value    0.507700622670073     
   GDM::BFGS:   highest Hinv e-value    1.52467752581504     
   GDM::      : max scaling in EWCs is          2.82842712474619     
   GDM::      : max rotation in step is        0.164524948061656     
   GDM::        grad.step =   -1.79206728285806     
   ------- Leaving GDM -- hopefully with a step in the right direction! --------
 
    4    -337.5611392651      1.06E+00  Gap = -5.31 eV  Descent step
 
   ------------------- Entering Geometric Direct Minimization ------------------
   GDM::trust : actual energy change is        -1.70946356157776     
   GDM::trust : predicted energy change was   -0.172890143914666     
   GDM::trust : updated trust radius is        0.330000000000000     
   GDM:         diagonal hessian shift is      0.000000000000000E+000
   GDM::PreWSS: input subspace size is                  4
   GDM::PreWSS: working subspace size set to            4
   GDM::PrEWSS: # of linearly dependent vectors =            0
   GDM::PrEWSS: Max dev from orthonormality =   1.103561686477406E-013
   GDM::BFGS:   lowest Hinv e-value    0.384565958888426     
   GDM::BFGS:   highest Hinv e-value    1.82015723829335     
   GDM::      : max scaling in EWCs is          2.82842712474619     
   GDM::      : max rotation in step is        0.199668326964312     
   GDM::        grad.step =   -1.48987090860431     
   ------- Leaving GDM -- hopefully with a step in the right direction! --------
 
    5    -339.2706028267      9.68E-01  Gap = -5.31 eV  Descent step
 
   ------------------- Entering Geometric Direct Minimization ------------------
   GDM::trust : actual energy change is        -1.41799033955448     
   GDM::trust : predicted energy change was   -0.168973227622306     
   GDM::trust : updated trust radius is        0.330000000000000     
   GDM:         diagonal hessian shift is      0.000000000000000E+000
   GDM::PreWSS: input subspace size is                  5
   GDM::PreWSS: working subspace size set to            5
   GDM::PrEWSS: # of linearly dependent vectors =            0
   GDM::PrEWSS: Max dev from orthonormality =   2.185474023974621E-013
   GDM::BFGS:   lowest Hinv e-value    0.345369560061540     
   GDM::BFGS:   highest Hinv e-value    1.78000008460120     
   GDM::      : max scaling in EWCs is          2.82842712474619     
   GDM::      : max rotation in step is        0.115024002769192     
   GDM::        grad.step =   -1.26688890420084     
   ------- Leaving GDM -- hopefully with a step in the right direction! --------
 
    6    -340.6885931662      7.31E-01  Gap = -5.31 eV  Descent step
 
   ------------------- Entering Geometric Direct Minimization ------------------
   GDM::trust : actual energy change is        -1.20375037194054     
   GDM::trust : predicted energy change was   -0.161229190455483     
   GDM::trust : updated trust radius is        0.330000000000000     
   GDM:         diagonal hessian shift is      0.000000000000000E+000
   GDM::PreWSS: input subspace size is                  6
   GDM::PreWSS: working subspace size set to            6
   GDM::PrEWSS: # of linearly dependent vectors =            0
   GDM::PrEWSS: Max dev from orthonormality =   1.774191904502231E-012
   GDM::BFGS:   lowest Hinv e-value    0.325202606162935     
   GDM::BFGS:   highest Hinv e-value    2.00322362314559     
   GDM::      : max scaling in EWCs is          2.82842712474619     
   GDM::      : max rotation in step is        0.139096746332739     
   GDM::        grad.step =   -1.12658815471016     
   ------- Leaving GDM -- hopefully with a step in the right direction! --------
 
    7    -341.8923435382      6.08E-01  Gap = -5.31 eV  Descent step
 
   ------------------- Entering Geometric Direct Minimization ------------------
   GDM::trust : actual energy change is        -1.04927307288955     
   GDM::trust : predicted energy change was   -0.154789628708059     
   GDM::trust : updated trust radius is        0.330000000000000     
   GDM:         diagonal hessian shift is      0.000000000000000E+000
   GDM::PreWSS: input subspace size is                  7
   GDM::PreWSS: working subspace size set to            7
   GDM::PrEWSS: # of linearly dependent vectors =            0
   GDM::PrEWSS: Max dev from orthonormality =   2.540419263841187E-012
   GDM::BFGS:   lowest Hinv e-value    0.276228273830925     
   GDM::BFGS:   highest Hinv e-value    2.11007845201994     
   GDM::      : max scaling in EWCs is          2.82842712474619     
   GDM::      : max rotation in step is       -0.143596175073204     
   GDM::        grad.step =  -0.956733528342715     
   ------- Leaving GDM -- hopefully with a step in the right direction! --------
 
    8    -342.9416166111      4.92E-01  Gap = -5.31 eV  Descent step
 
   ------------------- Entering Geometric Direct Minimization ------------------
   GDM::trust : actual energy change is       -0.890455805667898     
   GDM::trust : predicted energy change was   -0.157449478807409     
   GDM::trust : updated trust radius is        0.330000000000000     
   GDM:         diagonal hessian shift is      0.000000000000000E+000
   GDM::PreWSS: input subspace size is                  8
   GDM::PreWSS: working subspace size set to            8
   GDM::PrEWSS: # of linearly dependent vectors =            0
   GDM::PrEWSS: Max dev from orthonormality =   2.242088459336600E-012
   GDM::BFGS:   lowest Hinv e-value    0.266511860292204     
   GDM::BFGS:   highest Hinv e-value    2.37019665001755     
   GDM::      : max scaling in EWCs is          2.82842712474619     
   GDM::      : max rotation in step is        0.233443217946894     
   GDM::        grad.step =  -0.842717197731660     
   ------- Leaving GDM -- hopefully with a step in the right direction! --------
 
    9    -343.8320724167      6.67E-01  Gap = -5.31 eV  Descent step
 
   ------------------- Entering Geometric Direct Minimization ------------------
   GDM::trust : actual energy change is       -0.775356098413795     
   GDM::trust : predicted energy change was   -0.151153729490048     
   GDM::trust : updated trust radius is        0.330000000000000     
   GDM:         diagonal hessian shift is      0.000000000000000E+000
   GDM::PreWSS: input subspace size is                  9
   GDM::PreWSS: working subspace size set to            9
   GDM::PrEWSS: # of linearly dependent vectors =            0
   GDM::PrEWSS: Max dev from orthonormality =   2.034865331790314E-012
   GDM::BFGS:   lowest Hinv e-value    0.235905989155714     
   GDM::BFGS:   highest Hinv e-value    2.95376708979159     
   GDM::      : max scaling in EWCs is          2.82842712474619     
   GDM::      : max rotation in step is       -0.109132554604108     
   GDM::        grad.step =  -0.644983121014600     
   ------- Leaving GDM -- hopefully with a step in the right direction! --------
 
   10    -344.6074285151      3.58E-01  Gap = -5.31 eV  Descent step
 
   ------------------- Entering Geometric Direct Minimization ------------------
   GDM::trust : actual energy change is       -0.596449737467367     
   GDM::trust : predicted energy change was   -0.163278512260232     
   GDM::trust : updated trust radius is        0.330000000000000     
   GDM:         diagonal hessian shift is      0.000000000000000E+000
   GDM::PreWSS: input subspace size is                 10
   GDM::PreWSS: working subspace size set to           10
   GDM::PrEWSS: # of linearly dependent vectors =            0
   GDM::PrEWSS: Max dev from orthonormality =   1.767357094006883E-012
   GDM::BFGS:   lowest Hinv e-value    0.318241647143326     
   GDM::BFGS:   highest Hinv e-value    2.72133197409008     
   GDM::      : max scaling in EWCs is          2.82842712474619     
   GDM::      : max rotation in step is       -0.129027938362100     
   GDM::        grad.step =  -0.540198665437128     
   ------- Leaving GDM -- hopefully with a step in the right direction! --------
 
   11    -345.2038782526      2.51E-01  Gap = -5.31 eV  Descent step
 
   ------------------- Entering Geometric Direct Minimization ------------------
   GDM::trust : actual energy change is       -0.492167991089786     
   GDM::trust : predicted energy change was   -0.145974976368309     
   GDM::trust : updated trust radius is        0.330000000000000     
   GDM:         diagonal hessian shift is      0.000000000000000E+000
   GDM::PreWSS: input subspace size is                 11
   GDM::PreWSS: working subspace size set to           11
   GDM::PrEWSS: # of linearly dependent vectors =            0
   GDM::PrEWSS: Max dev from orthonormality =   3.813525883966662E-012
   GDM::BFGS:   lowest Hinv e-value    0.289556711455459     
   GDM::BFGS:   highest Hinv e-value    3.06124580176674     
   GDM::      : max scaling in EWCs is          2.82842712474619     
   GDM::      : max rotation in step is        0.121067313836260     
   GDM::        grad.step =  -0.436666986990947     
   ------- Leaving GDM -- hopefully with a step in the right direction! --------
 
   12    -345.6960462437      1.94E-01  Gap = -5.31 eV  Descent step
 
   ------------------- Entering Geometric Direct Minimization ------------------
   GDM::trust : actual energy change is       -0.393057082514815     
   GDM::trust : predicted energy change was   -0.141283984408011     
   GDM::trust : updated trust radius is        0.330000000000000     
   GDM:         diagonal hessian shift is      0.000000000000000E+000
   GDM::PreWSS: input subspace size is                 12
   GDM::PreWSS: working subspace size set to           12
   GDM::PrEWSS: # of linearly dependent vectors =            0
   GDM::PrEWSS: Max dev from orthonormality =   2.660097836448827E-012
   GDM::BFGS:   lowest Hinv e-value    0.294753665449552     
   GDM::BFGS:   highest Hinv e-value    3.18790647370066     
   GDM::      : max scaling in EWCs is          2.82842712474619     
   GDM::      : max rotation in step is       -0.253605161693586     
   GDM::        grad.step =  -0.352420132723338     
   ------- Leaving GDM -- hopefully with a step in the right direction! --------
 
   13    -346.0891033262      2.91E-01  Gap = -5.31 eV  Descent step
 
   ------------------- Entering Geometric Direct Minimization ------------------
   GDM::trust : actual energy change is       -0.306020109715575     
   GDM::trust : predicted energy change was   -0.142476741307752     
   GDM::trust : updated trust radius is        0.330000000000000     
   GDM:         diagonal hessian shift is      0.000000000000000E+000
   GDM::PreWSS: input subspace size is                 13
   GDM::PreWSS: working subspace size set to           13
   GDM::PrEWSS: # of linearly dependent vectors =            0
   GDM::PrEWSS: Max dev from orthonormality =   2.692630840517296E-012
   GDM::BFGS:   lowest Hinv e-value    0.283393328080610     
   GDM::BFGS:   highest Hinv e-value    3.42955775022317     
   GDM::      : max scaling in EWCs is          2.82842712474619     
   GDM::      : max rotation in step is        0.149454264566884     
   GDM::        grad.step =  -0.268476909407923     
   ------- Leaving GDM -- hopefully with a step in the right direction! --------
 
   14    -346.3951234359      2.08E-01  Gap = -5.31 eV  Descent step
 
   ------------------- Entering Geometric Direct Minimization ------------------
   GDM::trust : actual energy change is       -0.233157994866758     
   GDM::trust : predicted energy change was   -0.136395786902870     
   GDM::trust : updated trust radius is        0.330000000000000     
   GDM:         diagonal hessian shift is      0.000000000000000E+000
   GDM::PreWSS: input subspace size is                 14
   GDM::PreWSS: working subspace size set to           14
   GDM::PrEWSS: # of linearly dependent vectors =            0
   GDM::PrEWSS: Max dev from orthonormality =   3.228885908646006E-012
   GDM::BFGS:   lowest Hinv e-value    0.272400807811983     
   GDM::BFGS:   highest Hinv e-value    3.53672151957350     
   GDM::      : max scaling in EWCs is          2.82842712474619     
   GDM::      : max rotation in step is        0.336971664260405     
   GDM::        grad.step =  -0.216875692870424     
   ------- Leaving GDM -- hopefully with a step in the right direction! --------
 
   15    -346.6282814308      3.05E-01  Gap = -469.37 eV  Descent step
 
   ------------------- Entering Geometric Direct Minimization ------------------
   GDM::trust : actual energy change is       -0.192512858865030     
   GDM::trust : predicted energy change was   -0.132116402914539     
   GDM::trust : updated trust radius is        0.330000000000000     
   GDM:         diagonal hessian shift is      0.000000000000000E+000
   GDM::PreWSS: input subspace size is                 15
   GDM::PreWSS: working subspace size set to           15
   GDM::PrEWSS: # of linearly dependent vectors =            0
   GDM::PrEWSS: Max dev from orthonormality =   3.398958198230773E-012
   GDM::BFGS:   lowest Hinv e-value    0.255338574976317     
   GDM::BFGS:   highest Hinv e-value    4.05043736876575     
   GDM::      : max scaling in EWCs is          2.82842712474619     
   GDM::      : max rotation in step is        0.384707825134939     
   GDM::        grad.step =  -0.219209622256969     
   ------- Leaving GDM -- hopefully with a step in the right direction! --------
 
   16    -346.8207942897      4.83E-01  Gap = -469.37 eV  Descent step
 
   ------------------- Entering Geometric Direct Minimization ------------------
   GDM::trust : actual energy change is       -0.216771183120102     
   GDM::trust : predicted energy change was   -0.154112712774045     
   GDM::trust : updated trust radius is        0.330000000000000     
   GDM:         diagonal hessian shift is      0.000000000000000E+000
   GDM::PreWSS: input subspace size is                 16
   GDM::PreWSS: working subspace size set to           16
   GDM::PrEWSS: # of linearly dependent vectors =            0
   GDM::PrEWSS: Max dev from orthonormality =   1.440306207634023E-012
   GDM::BFGS:   lowest Hinv e-value    0.244815056705787     
   GDM::BFGS:   highest Hinv e-value    10.5545498996700     
   GDM::      : max scaling in EWCs is          2.82842712474619     
   GDM::      : max rotation in step is        0.531554071628272     
   GDM::        grad.step =  -0.221090518903818     
   ------- Leaving GDM -- hopefully with a step in the right direction! --------
 
   17    -347.0375654728      4.79E-01  Gap = -469.37 eV  Descent step
 
   ------------------- Entering Geometric Direct Minimization ------------------
   GDM::trust : actual energy change is       -0.146766213570231     
   GDM::trust : predicted energy change was   -0.159963203290583     
   GDM::trust : updated trust radius is        0.330000000000000     
   GDM:         diagonal hessian shift is      0.000000000000000E+000
   GDM::PreWSS: input subspace size is                 17
   GDM::PreWSS: working subspace size set to           17
   GDM::PrEWSS: # of linearly dependent vectors =            0
   GDM::PrEWSS: Max dev from orthonormality =   5.872345144875002E-012
   GDM::BFGS:   lowest Hinv e-value    0.247441943154904     
   GDM::BFGS:   highest Hinv e-value    9.75435092941427     
   GDM::      : max scaling in EWCs is          2.82842712474619     
   GDM::      : max rotation in step is        0.536724096895386     
   GDM::        grad.step =  -0.145540419795313     
   ------- Leaving GDM -- hopefully with a step in the right direction! --------
 
   18    -347.1843316864      2.54E-01  Gap = -469.37 eV  Descent step
 
   ------------------- Entering Geometric Direct Minimization ------------------
   GDM::trust : actual energy change is        6.486726868558890E-002
   GDM::trust : predicted energy change was   -0.188985226030430     
   GDM::trust : updated trust radius is        0.108900000000000     
   GDM::search:  On step            1 .  The current bracket is:
       left   : x =  0.0000E+00, e =      -347.1843316864, g = -0.2124E+00
       current: x =  0.6852E+00, e =      -347.1194644177, g =  0.4933E+00
       right  : x =  0.1000E+04, e =      1000.0000000000, g =  0.1000E+04
       next   : x =  0.2370E+00
   GDM::      : max rotation in step is        0.185627842167719     
   ------- Leaving GDM -- hopefully with a step in the right direction! --------
 
   19    -347.1194644177      1.26E-01  Gap = -469.37 eV  Line search: overstep
 
   ------------------- Entering Geometric Direct Minimization ------------------
   GDM::trust : actual energy change is       -3.172767597902748E-002
   GDM::trust : predicted energy change was   -0.188985226030430     
   GDM::trust : updated trust radius is        0.108900000000000     
   GDM:         diagonal hessian shift is      0.000000000000000E+000
   GDM::PreWSS: input subspace size is                 18
   GDM::PreWSS: working subspace size set to           18
   GDM::PrEWSS: # of linearly dependent vectors =            0
   GDM::PrEWSS: Max dev from orthonormality =   3.836375661592228E-012
   GDM::BFGS:   lowest Hinv e-value    0.204519032795328     
   GDM::BFGS:   highest Hinv e-value    10.6459115508001     
   GDM::      : max scaling in EWCs is          2.82842712474619     
   GDM::      : max rotation in step is        0.158463158998504     
   GDM::        grad.step =  -3.401740337713263E-002
   ------- Leaving GDM -- hopefully with a step in the right direction! --------
 
   20    -347.2160593623      1.61E-01  Gap = -469.37 eV  Descent step
 
   ------------------- Entering Geometric Direct Minimization ------------------
   GDM::trust : actual energy change is       -2.969251609408730E-002
   GDM::trust : predicted energy change was   -2.234109193976757E-002
   GDM::trust : updated trust radius is        0.330000000000000     
   GDM:         diagonal hessian shift is      0.000000000000000E+000
   GDM::PreWSS: input subspace size is                 19
   GDM::PreWSS: working subspace size set to           18
   GDM::PrEWSS: # of linearly dependent vectors =            0
   GDM::PrEWSS: Max dev from orthonormality =   3.126097471162215E-012
   GDM::BFGS:   lowest Hinv e-value    0.134112433484375     
   GDM::BFGS:   highest Hinv e-value    13.1557250580417     
   GDM::trust : dogleg step length is          0.330000000000000     
   GDM::      : max scaling in EWCs is          2.82842712474619     
   GDM::      : max rotation in step is        0.799031591633008     
   GDM::        grad.step =  -0.105287731194917     
   ------- Leaving GDM -- hopefully with a step in the right direction! --------
 
   21    -347.2457518784      2.74E-01  Gap = -469.37 eV  Dog-leg BFGS step
 
   ------------------- Entering Geometric Direct Minimization ------------------
   GDM::trust : actual energy change is       -4.538730324304652E-002
   GDM::trust : predicted energy change was   -0.172020030603095     
   GDM::trust : updated trust radius is        0.330000000000000     
   GDM:         diagonal hessian shift is      0.000000000000000E+000
   GDM::PreWSS: input subspace size is                 19
   GDM::PreWSS: working subspace size set to           18
   GDM::PrEWSS: # of linearly dependent vectors =            0
   GDM::PrEWSS: Max dev from orthonormality =   1.726473131125061E-012
   GDM::BFGS:   lowest Hinv e-value    0.245834693612783     
   GDM::BFGS:   highest Hinv e-value    12.5846866826098     
   GDM::      : max scaling in EWCs is          2.82842712474619     
   GDM::      : max rotation in step is       -0.216349651356815     
   GDM::        grad.step =  -0.142620923551890     
   ------- Leaving GDM -- hopefully with a step in the right direction! --------
 
   22    -347.2911391817      1.00E-01  Gap = -469.37 eV  Descent step
 
   ------------------- Entering Geometric Direct Minimization ------------------
   GDM::trust : actual energy change is        4.215766639083540E-002
   GDM::trust : predicted energy change was   -0.252183081518178     
   GDM::trust : updated trust radius is        0.108900000000000     
   GDM::search:  On step            1 .  The current bracket is:
       left   : x =  0.0000E+00, e =      -347.2911391817, g = -0.3188E+00
       current: x =  0.4473E+00, e =      -347.2489815153, g =  0.5226E+00
       right  : x =  0.1000E+04, e =      1000.0000000000, g =  0.1000E+04
       next   : x =  0.1726E+00
   GDM::      : max rotation in step is       -8.349448682394027E-002
   ------- Leaving GDM -- hopefully with a step in the right direction! --------
 
   23    -347.2489815153      1.05E-01  Gap = -469.37 eV  Line search: overstep
 
   ------------------- Entering Geometric Direct Minimization ------------------
   GDM::trust : actual energy change is       -2.855184193361993E-002
   GDM::trust : predicted energy change was   -0.252183081518178     
   GDM::trust : updated trust radius is        0.108900000000000     
   GDM:         diagonal hessian shift is      0.000000000000000E+000
   GDM::PreWSS: input subspace size is                 19
   GDM::PreWSS: working subspace size set to           18
   GDM::PrEWSS: # of linearly dependent vectors =            0
   GDM::PrEWSS: Max dev from orthonormality =   2.327603821489221E-012
   GDM::BFGS:   lowest Hinv e-value    0.248230179511229     
   GDM::BFGS:   highest Hinv e-value    11.6447049507265     
   GDM::      : max scaling in EWCs is          2.82842712474619     
   GDM::      : max rotation in step is        0.137622716811711     
   GDM::        grad.step =  -1.527285768123072E-002
   ------- Leaving GDM -- hopefully with a step in the right direction! --------
 
   24    -347.3196910236      8.50E-02  Gap = -469.37 eV  Descent step
 
   ------------------- Entering Geometric Direct Minimization ------------------
   GDM::trust : actual energy change is       -2.687616483115107E-003
   GDM::trust : predicted energy change was   -1.792038079064102E-002
   GDM::trust : updated trust radius is        0.330000000000000     
   GDM:         diagonal hessian shift is      0.000000000000000E+000
   GDM::PreWSS: input subspace size is                 19
   GDM::PreWSS: working subspace size set to           18
   GDM::PrEWSS: # of linearly dependent vectors =            0
   GDM::PrEWSS: Max dev from orthonormality =   1.155020523668782E-012
   GDM::BFGS:   lowest Hinv e-value    0.188286998549108     
   GDM::BFGS:   highest Hinv e-value    12.0043715050179     
   GDM::      : max scaling in EWCs is          2.82842712474619     
   GDM::      : max rotation in step is       -0.171355305003045     
   GDM::        grad.step =  -2.105427288128299E-002
   ------- Leaving GDM -- hopefully with a step in the right direction! --------
 
   25    -347.3223786401      1.27E-01  Gap = -469.37 eV  Normal BFGS step
 
   ------------------- Entering Geometric Direct Minimization ------------------
   GDM::trust : actual energy change is       -4.101958231728986E-003
   GDM::trust : predicted energy change was   -3.158140932192448E-002
   GDM::trust : updated trust radius is        0.330000000000000     
   GDM:         diagonal hessian shift is      0.000000000000000E+000
   GDM::PreWSS: input subspace size is                 19
   GDM::PreWSS: working subspace size set to           18
   GDM::PrEWSS: # of linearly dependent vectors =            0
   GDM::PrEWSS: Max dev from orthonormality =   1.131622573424806E-012
   GDM::BFGS:   lowest Hinv e-value    0.202051708171704     
   GDM::BFGS:   highest Hinv e-value    10.5507830394165     
   GDM::trust : dogleg step length is          0.330000000000000     
   GDM::      : max scaling in EWCs is          2.82842712474619     
   GDM::      : max rotation in step is       -0.299765893164871     
   GDM::        grad.step =  -2.642584387296270E-002
   ------- Leaving GDM -- hopefully with a step in the right direction! --------
 
   26    -347.3264805983      7.14E-02  Gap = -469.37 eV  Dog-leg BFGS step
 
   ------------------- Entering Geometric Direct Minimization ------------------
   GDM::trust : actual energy change is        2.722645971726934E-002
   GDM::trust : predicted energy change was   -3.986707633430055E-002
   GDM::trust : updated trust radius is        0.108900000000000     
   GDM::search:  On step            1 .  The current bracket is:
       left   : x =  0.0000E+00, e =      -347.3264805983, g = -0.5424E-01
       current: x =  0.4872E+00, e =      -347.2992541386, g =  0.1633E+00
       right  : x =  0.1000E+04, e =      1000.0000000000, g =  0.1000E+04
       next   : x =  0.1200E+00
   GDM::      : max rotation in step is       -7.382317404034359E-002
   ------- Leaving GDM -- hopefully with a step in the right direction! --------
 
   27    -347.2992541386      2.75E-02  Gap = 0.00 eV  Line search: overstep
 
   ------------------- Entering Geometric Direct Minimization ------------------
   GDM::trust : actual energy change is       -3.181054182562093E-003
   GDM::trust : predicted energy change was   -3.986707633430055E-002
   GDM::trust : updated trust radius is        0.108900000000000     
   GDM:         diagonal hessian shift is      0.000000000000000E+000
   GDM::PreWSS: input subspace size is                 19
   GDM::PreWSS: working subspace size set to           18
   GDM::PrEWSS: # of linearly dependent vectors =            0
   GDM::PrEWSS: Max dev from orthonormality =   3.975970594427558E-012
   GDM::BFGS:   lowest Hinv e-value    0.209071391493015     
   GDM::BFGS:   highest Hinv e-value    6.65306039217541     
   GDM::      : max scaling in EWCs is          2.82842712474619     
   GDM::      : max rotation in step is        9.823946258050614E-002
   GDM::        grad.step =  -1.433740803244310E-002
   ------- Leaving GDM -- hopefully with a step in the right direction! --------
 
   28    -347.3296616525      6.20E-02  Gap = 0.00 eV  Descent step
 
   ------------------- Entering Geometric Direct Minimization ------------------
   GDM::trust : actual energy change is        6.833819039059108E-003
   GDM::trust : predicted energy change was   -2.611014208278407E-002
   GDM::trust : updated trust radius is        0.108900000000000     
   GDM::search:  On step            1 .  The current bracket is:
       left   : x =  0.0000E+00, e =      -347.3296616525, g = -0.9948E-01
       current: x =  0.1441E+00, e =      -347.3228278335, g =  0.1960E+00
       right  : x =  0.1000E+04, e =      1000.0000000000, g =  0.1000E+04
       next   : x =  0.4880E-01
   GDM::      : max rotation in step is        3.326446915777900E-002
   ------- Leaving GDM -- hopefully with a step in the right direction! --------
 
   29    -347.3228278335      1.65E-02  Gap = 0.00 eV  Line search: overstep
 
   ------------------- Entering Geometric Direct Minimization ------------------
   GDM::trust : actual energy change is       -2.451316146050431E-003
   GDM::trust : predicted energy change was   -2.611014208278407E-002
   GDM::trust : updated trust radius is        0.108900000000000     
   GDM:         diagonal hessian shift is      0.000000000000000E+000
   GDM::PreWSS: input subspace size is                 19
   GDM::PreWSS: working subspace size set to           18
   GDM::PrEWSS: # of linearly dependent vectors =            0
   GDM::PrEWSS: Max dev from orthonormality =   3.654205410486000E-012
   GDM::BFGS:   lowest Hinv e-value    0.202690190585756     
   GDM::BFGS:   highest Hinv e-value    7.44472063083352     
   GDM::trust : dogleg step length is          0.108900000000000     
   GDM::      : max scaling in EWCs is          2.82842712474619     
   GDM::      : max rotation in step is       -8.267088501155760E-002
   GDM::        grad.step =  -5.930867884437369E-003
   ------- Leaving GDM -- hopefully with a step in the right direction! --------
 
   30    -347.3321129687      2.20E-02  Gap = 0.00 eV  Dog-leg BFGS step
 
   ------------------- Entering Geometric Direct Minimization ------------------
   GDM::trust : actual energy change is        9.444974442089915E-004
   GDM::trust : predicted energy change was   -9.473912824294876E-003
   GDM::trust : updated trust radius is        3.593700000000000E-002
   GDM::search:  On step            1 .  The current bracket is:
       left   : x =  0.0000E+00, e =      -347.3321129687, g = -0.3932E-01
       current: x =  0.1508E+00, e =      -347.3311684712, g =  0.5068E-01
       right  : x =  0.1000E+04, e =      1000.0000000000, g =  0.1000E+04
       next   : x =  0.6505E-01
   GDM::      : max rotation in step is       -3.565702136948082E-002
   ------- Leaving GDM -- hopefully with a step in the right direction! --------
 
   31    -347.3311684712      3.70E-03  Gap = 0.00 eV  Line search: overstep
 
   ------------------- Entering Geometric Direct Minimization ------------------
   GDM::trust : actual energy change is       -1.259956769558812E-003
   GDM::trust : predicted energy change was   -9.473912824294876E-003
   GDM::trust : updated trust radius is        3.593700000000000E-002
   GDM:         diagonal hessian shift is      0.000000000000000E+000
   GDM::PreWSS: input subspace size is                 19
   GDM::PreWSS: working subspace size set to           18
   GDM::PrEWSS: # of linearly dependent vectors =            0
   GDM::PrEWSS: Max dev from orthonormality =   1.811141514540537E-012
   GDM::BFGS:   lowest Hinv e-value    0.222985044859773     
   GDM::BFGS:   highest Hinv e-value    4.00281096700863     
   GDM::      : max scaling in EWCs is          2.82842712474619     
   GDM::      : max rotation in step is        3.693837261852526E-002
   GDM::        grad.step =  -1.586315001869600E-003
   ------- Leaving GDM -- hopefully with a step in the right direction! --------
 
   32    -347.3333729254      2.38E-02  Gap = 0.00 eV  Descent step
 
   ------------------- Entering Geometric Direct Minimization ------------------
   GDM::trust : actual energy change is       -3.932848591148286E-005
   GDM::trust : predicted energy change was   -3.069966729804848E-003
   GDM::trust : updated trust radius is        0.330000000000000     
   GDM:         diagonal hessian shift is      0.000000000000000E+000
   GDM::PreWSS: input subspace size is                 19
   GDM::PreWSS: working subspace size set to           18
   GDM::PrEWSS: # of linearly dependent vectors =            0
   GDM::PrEWSS: Max dev from orthonormality =   1.193378729169581E-012
   GDM::BFGS:   lowest Hinv e-value    0.190855196910402     
   GDM::BFGS:   highest Hinv e-value    4.47876204136988     
   GDM::      : max scaling in EWCs is          2.82842712474619     
   GDM::      : max rotation in step is       -8.043224651567217E-002
   GDM::        grad.step =  -3.066215884031025E-003
   ------- Leaving GDM -- hopefully with a step in the right direction! --------
 
   33    -347.3334122539      5.13E-02  Gap = 0.00 eV  Normal BFGS step
 
   ------------------- Entering Geometric Direct Minimization ------------------
   GDM::trust : actual energy change is       -1.134962255946448E-004
   GDM::trust : predicted energy change was   -4.599323826046537E-003
   GDM::trust : updated trust radius is        0.330000000000000     
   GDM:         diagonal hessian shift is      0.000000000000000E+000
   GDM::PreWSS: input subspace size is                 19
   GDM::PreWSS: working subspace size set to           18
   GDM::PrEWSS: # of linearly dependent vectors =            0
   GDM::PrEWSS: Max dev from orthonormality =   8.114203753351035E-012
   GDM::BFGS:   lowest Hinv e-value    0.218241558724637     
   GDM::BFGS:   highest Hinv e-value    3.06882966717701     
   GDM::      : max scaling in EWCs is          2.82842712474619     
   GDM::      : max rotation in step is       -6.575123361972807E-002
   GDM::        grad.step =  -3.213812005756754E-003
   ------- Leaving GDM -- hopefully with a step in the right direction! --------
 
   34    -347.3335257501      2.00E-02  Gap = 0.00 eV  Normal BFGS step
 
   ------------------- Entering Geometric Direct Minimization ------------------
   GDM::trust : actual energy change is       -1.245869138244871E-003
   GDM::trust : predicted energy change was   -4.820718008635132E-003
   GDM::trust : updated trust radius is        0.330000000000000     
   GDM:         diagonal hessian shift is      0.000000000000000E+000
   GDM::PreWSS: input subspace size is                 19
   GDM::PreWSS: working subspace size set to           18
   GDM::PrEWSS: # of linearly dependent vectors =            0
   GDM::PrEWSS: Max dev from orthonormality =   1.132300503359218E-011
   GDM::BFGS:   lowest Hinv e-value    0.224541680572693     
   GDM::BFGS:   highest Hinv e-value    3.15161700955140     
   GDM::      : max scaling in EWCs is          2.82842712474619     
   GDM::      : max rotation in step is       -1.700856534053730E-002
   GDM::        grad.step =  -7.289541874290179E-004
   ------- Leaving GDM -- hopefully with a step in the right direction! --------
 
   35    -347.3347716193      2.04E-02  Gap = 0.00 eV  Normal BFGS step
 
   ------------------- Entering Geometric Direct Minimization ------------------
   GDM::trust : actual energy change is       -1.982319078024375E-004
   GDM::trust : predicted energy change was   -1.093431281143527E-003
   GDM::trust : updated trust radius is        0.330000000000000     
   GDM:         diagonal hessian shift is      0.000000000000000E+000
   GDM::PreWSS: input subspace size is                 19
   GDM::PreWSS: working subspace size set to           18
   GDM::PrEWSS: # of linearly dependent vectors =            0
   GDM::PrEWSS: Max dev from orthonormality =   2.654890196573945E-012
   GDM::BFGS:   lowest Hinv e-value    0.221665310436214     
   GDM::BFGS:   highest Hinv e-value    3.25936534468487     
   GDM::      : max scaling in EWCs is          2.82842712474619     
   GDM::      : max rotation in step is       -2.142646286294370E-002
   GDM::        grad.step =  -4.204774527452092E-004
   ------- Leaving GDM -- hopefully with a step in the right direction! --------
 
   36    -347.3349698512      5.86E-03  Gap = 0.00 eV  Normal BFGS step
 
   ------------------- Entering Geometric Direct Minimization ------------------
   GDM::trust : actual energy change is       -1.277416134257692E-004
   GDM::trust : predicted energy change was   -6.307161791178139E-004
   GDM::trust : updated trust radius is        0.330000000000000     
   GDM:         diagonal hessian shift is      0.000000000000000E+000
   GDM::PreWSS: input subspace size is                 19
   GDM::PreWSS: working subspace size set to           18
   GDM::PrEWSS: # of linearly dependent vectors =            0
   GDM::PrEWSS: Max dev from orthonormality =   3.924742475458487E-012
   GDM::BFGS:   lowest Hinv e-value    0.226286199050725     
   GDM::BFGS:   highest Hinv e-value    3.64921654592737     
   GDM::      : max scaling in EWCs is          2.82842712474619     
   GDM::      : max rotation in step is       -1.835154136683756E-002
   GDM::        grad.step =  -1.863718267233112E-004
   ------- Leaving GDM -- hopefully with a step in the right direction! --------
 
   37    -347.3350975928      9.64E-03  Gap = 0.00 eV  Normal BFGS step
 
   ------------------- Entering Geometric Direct Minimization ------------------
   GDM::trust : actual energy change is       -7.297423724139662E-005
   GDM::trust : predicted energy change was   -2.795577400849666E-004
   GDM::trust : updated trust radius is        0.330000000000000     
   GDM:         diagonal hessian shift is      0.000000000000000E+000
   GDM::PreWSS: input subspace size is                 19
   GDM::PreWSS: working subspace size set to           18
   GDM::PrEWSS: # of linearly dependent vectors =            0
   GDM::PrEWSS: Max dev from orthonormality =   3.209408433457739E-012
   GDM::BFGS:   lowest Hinv e-value    0.206720751989082     
   GDM::BFGS:   highest Hinv e-value    4.00593146570821     
   GDM::      : max scaling in EWCs is          2.82842712474619     
   GDM::      : max rotation in step is       -9.290400742086927E-003
   GDM::        grad.step =  -5.017127991233105E-005
   ------- Leaving GDM -- hopefully with a step in the right direction! --------
 
   38    -347.3351705670      2.15E-03  Gap = 0.00 eV  Normal BFGS step
 
   ------------------- Entering Geometric Direct Minimization ------------------
   GDM::trust : actual energy change is       -2.090889051942213E-005
   GDM::trust : predicted energy change was   -7.525691986849656E-005
   GDM::trust : updated trust radius is        0.330000000000000     
   GDM:         diagonal hessian shift is      0.000000000000000E+000
   GDM::PreWSS: input subspace size is                 19
   GDM::PreWSS: working subspace size set to           18
   GDM::PrEWSS: # of linearly dependent vectors =            0
   GDM::PrEWSS: Max dev from orthonormality =   3.817487992385793E-012
   GDM::BFGS:   lowest Hinv e-value    0.216440206476310     
   GDM::BFGS:   highest Hinv e-value    4.25237565012995     
   GDM::      : max scaling in EWCs is          2.82842712474619     
   GDM::      : max rotation in step is       -4.950755594358193E-003
   GDM::        grad.step =  -1.780610528741007E-005
   ------- Leaving GDM -- hopefully with a step in the right direction! --------
 
   39    -347.3351914759      1.38E-03  Gap = 0.00 eV  Normal BFGS step
 
   ------------------- Entering Geometric Direct Minimization ------------------
   GDM::trust : actual energy change is       -5.371612417093274E-006
   GDM::trust : predicted energy change was   -2.670915793111511E-005
   GDM::trust : updated trust radius is        0.330000000000000     
   GDM:         diagonal hessian shift is      0.000000000000000E+000
   GDM::PreWSS: input subspace size is                 19
   GDM::PreWSS: working subspace size set to           18
   GDM::PrEWSS: # of linearly dependent vectors =            0
   GDM::PrEWSS: Max dev from orthonormality =   6.409869163226389E-012
   GDM::BFGS:   lowest Hinv e-value    0.196756330980726     
   GDM::BFGS:   highest Hinv e-value    4.50296903014294     
   GDM::      : max scaling in EWCs is          2.82842712474619     
   GDM::      : max rotation in step is       -2.304403975386404E-003
   GDM::        grad.step =  -6.585086487435591E-006
   ------- Leaving GDM -- hopefully with a step in the right direction! --------
 
   40    -347.3351968475      1.07E-03  Gap = 0.00 eV  Normal BFGS step
 
   ------------------- Entering Geometric Direct Minimization ------------------
   GDM::trust : actual energy change is       -2.824457112637901E-006
   GDM::trust : predicted energy change was   -9.877629731153381E-006
   GDM::trust : updated trust radius is        0.330000000000000     
   GDM:         diagonal hessian shift is      0.000000000000000E+000
   GDM::PreWSS: input subspace size is                 19
   GDM::PreWSS: working subspace size set to           18
   GDM::PrEWSS: # of linearly dependent vectors =            0
   GDM::PrEWSS: Max dev from orthonormality =   4.992284363680710E-012
   GDM::BFGS:   lowest Hinv e-value    0.212686998294779     
   GDM::BFGS:   highest Hinv e-value    4.60535148177284     
   GDM::      : max scaling in EWCs is          2.82842712474619     
   GDM::      : max rotation in step is       -7.162467776079481E-004
   GDM::        grad.step =  -8.647929777575353E-007
   ------- Leaving GDM -- hopefully with a step in the right direction! --------
 
   41    -347.3351996720      7.04E-04  Gap = -5.31 eV  Normal BFGS step
 
   ------------------- Entering Geometric Direct Minimization ------------------
   GDM::trust : actual energy change is       -3.700515662785619E-007
   GDM::trust : predicted energy change was   -1.297189466636304E-006
   GDM::trust : updated trust radius is        0.330000000000000     
   GDM:         diagonal hessian shift is      0.000000000000000E+000
   GDM::PreWSS: input subspace size is                 19
   GDM::PreWSS: working subspace size set to           18
   GDM::PrEWSS: # of linearly dependent vectors =            0
   GDM::PrEWSS: Max dev from orthonormality =   2.064903803500329E-012
   GDM::BFGS:   lowest Hinv e-value    0.196405917605451     
   GDM::BFGS:   highest Hinv e-value    4.63016012018083     
   GDM::      : max scaling in EWCs is          2.82842712474619     
   GDM::      : max rotation in step is       -1.898204226128077E-004
   GDM::        grad.step =  -8.179363820611211E-008
   ------- Leaving GDM -- hopefully with a step in the right direction! --------
 
   42    -347.3352000420      7.69E-05  Gap = -5.31 eV  Normal BFGS step
 
   ------------------- Entering Geometric Direct Minimization ------------------
   GDM::trust : actual energy change is       -4.252075314070680E-008
   GDM::trust : predicted energy change was   -1.226904573091682E-007
   GDM::trust : updated trust radius is        0.330000000000000     
   GDM:         diagonal hessian shift is      0.000000000000000E+000
   GDM::PreWSS: input subspace size is                 19
   GDM::PreWSS: working subspace size set to           18
   GDM::PrEWSS: # of linearly dependent vectors =            0
   GDM::PrEWSS: Max dev from orthonormality =   4.946903997549157E-012
   GDM::BFGS:   lowest Hinv e-value    0.201288318392788     
   GDM::BFGS:   highest Hinv e-value    4.58585957979135     
   GDM::      : max scaling in EWCs is          2.82842712474619     
   GDM::      : max rotation in step is       -1.105775377152315E-004
   GDM::        grad.step =  -1.012001570389363E-008
   ------- Leaving GDM -- hopefully with a step in the right direction! --------
 
   43    -347.3352000846      2.50E-05  Gap = -5.31 eV  Normal BFGS step
 
   ------------------- Entering Geometric Direct Minimization ------------------
   GDM::trust : actual energy change is       -4.728235580842011E-009
   GDM::trust : predicted energy change was   -1.518002355584045E-008
   GDM::trust : updated trust radius is        0.330000000000000     
   GDM:         diagonal hessian shift is      0.000000000000000E+000
   GDM::PreWSS: input subspace size is                 19
   GDM::PreWSS: working subspace size set to           18
   GDM::PrEWSS: # of linearly dependent vectors =            0
   GDM::PrEWSS: Max dev from orthonormality =   1.057885584687668E-010
   GDM::BFGS:   lowest Hinv e-value    0.185670076359410     
   GDM::BFGS:   highest Hinv e-value    4.63581871297964     
   GDM::      : max scaling in EWCs is          2.82842712474619     
   GDM::      : max rotation in step is       -3.562734795384658E-005
   GDM::        grad.step =  -1.370780042495917E-009
   ------- Leaving GDM -- hopefully with a step in the right direction! --------
 
   44    -347.3352000893      3.38E-05  Gap = -5.31 eV  Normal BFGS step
 
   ------------------- Entering Geometric Direct Minimization ------------------
   GDM::trust : actual energy change is       -7.287894732144196E-010
   GDM::trust : predicted energy change was   -2.056170063743875E-009
   GDM::trust : updated trust radius is        0.330000000000000     
   GDM:         diagonal hessian shift is      0.000000000000000E+000
   GDM::PreWSS: input subspace size is                 19
   GDM::PreWSS: working subspace size set to           18
   GDM::PrEWSS: # of linearly dependent vectors =            0
   GDM::PrEWSS: Max dev from orthonormality =   2.409975344286330E-011
   GDM::BFGS:   lowest Hinv e-value    0.180266806021766     
   GDM::BFGS:   highest Hinv e-value    5.07955639481382     
   GDM::      : max scaling in EWCs is          2.82842712474619     
   GDM::      : max rotation in step is        1.306124493772629E-005
   GDM::        grad.step =  -1.134812595709519E-010
   ------- Leaving GDM -- hopefully with a step in the right direction! --------
 
   45    -347.3352000900      4.82E-06  Gap = -5.31 eV  Normal BFGS step
 
   ------------------- Entering Geometric Direct Minimization ------------------
   GDM::trust : actual energy change is       -4.195044311927631E-011
   GDM::trust : predicted energy change was   -1.702218893564278E-010
   GDM::trust : updated trust radius is        0.330000000000000     
   GDM:         diagonal hessian shift is      0.000000000000000E+000
   GDM::PreWSS: input subspace size is                 19
   GDM::PreWSS: working subspace size set to           18
   GDM::PrEWSS: # of linearly dependent vectors =            0
   GDM::PrEWSS: Max dev from orthonormality =   1.101247183721288E-010
   GDM::BFGS:   lowest Hinv e-value    0.176392836365901     
   GDM::BFGS:   highest Hinv e-value    4.56735882197522     
   GDM::      : max scaling in EWCs is          2.82842712474619     
   GDM::      : max rotation in step is        5.674308902094467E-006
   GDM::        grad.step =  -4.328885681506833E-011
   ------- Leaving GDM -- hopefully with a step in the right direction! --------
 
   46    -347.3352000901      2.04E-06  Gap = -5.31 eV  Normal BFGS step
 
   ------------------- Entering Geometric Direct Minimization ------------------
   GDM::trust : actual energy change is       -2.000888343900442E-011
   GDM::trust : predicted energy change was   -6.493328522260252E-011
   GDM::trust : updated trust radius is        0.330000000000000     
   GDM:         diagonal hessian shift is      0.000000000000000E+000
   GDM::PreWSS: input subspace size is                 19
   GDM::PreWSS: working subspace size set to           18
   GDM::PrEWSS: # of linearly dependent vectors =            0
   GDM::PrEWSS: Max dev from orthonormality =   1.171822083811946E-010
   GDM::BFGS:   lowest Hinv e-value    0.175600786621652     
   GDM::BFGS:   highest Hinv e-value    4.42937670128045     
   GDM::      : max scaling in EWCs is          2.82842712474619     
   GDM::      : max rotation in step is       -2.837687083587374E-006
   GDM::        grad.step =  -6.307750074118469E-012
   ------- Leaving GDM -- hopefully with a step in the right direction! --------
 
   47    -347.3352000901      1.36E-06  Gap = -5.31 eV  Normal BFGS step
 
   ------------------- Entering Geometric Direct Minimization ------------------
   GDM::trust : actual energy change is       -3.012701199622825E-012
   GDM::trust : predicted energy change was   -9.461625111177704E-012
   GDM::trust : updated trust radius is        0.330000000000000     
   GDM:         diagonal hessian shift is      0.000000000000000E+000
   GDM::PreWSS: input subspace size is                 19
   GDM::PreWSS: working subspace size set to           18
   GDM::PrEWSS: # of linearly dependent vectors =            0
   GDM::PrEWSS: Max dev from orthonormality =   3.665495684757047E-011
   GDM::BFGS:   lowest Hinv e-value    0.179815561383392     
   GDM::BFGS:   highest Hinv e-value    4.71781084275535     
   GDM::      : max scaling in EWCs is          2.82842712474619     
   GDM::      : max rotation in step is       -1.256304810578168E-006
   GDM::        grad.step =  -1.055736812313927E-012
   ------- Leaving GDM -- hopefully with a step in the right direction! --------
 
   48    -347.3352000901      2.68E-07  Gap = -5.31 eV  Normal BFGS step
 
   ------------------- Entering Geometric Direct Minimization ------------------
   GDM::trust : actual energy change is       -5.684341886080801E-014
   GDM::trust : predicted energy change was   -1.583605218470890E-012
   GDM::trust : updated trust radius is        0.330000000000000     
   GDM:         diagonal hessian shift is      0.000000000000000E+000
   GDM::PreWSS: input subspace size is                 19
   GDM::PreWSS: working subspace size set to           14
   GDM::PrEWSS: # of linearly dependent vectors =            0
   GDM::PrEWSS: Max dev from orthonormality =   7.724695882949106E-012
   GDM::BFGS:   lowest Hinv e-value    0.200225733605189     
   GDM::BFGS:   highest Hinv e-value    4.51548578229880     
   GDM::      : max scaling in EWCs is          2.82842712474619     
   GDM::      : max rotation in step is        3.561074704980883E-007
   GDM::        grad.step =  -1.236277880409126E-013
   ------- Leaving GDM -- hopefully with a step in the right direction! --------
 
   49    -347.3352000901      1.37E-07  Gap = -5.31 eV  Normal BFGS step
 
   ------------------- Entering Geometric Direct Minimization ------------------
   GDM::trust : actual energy change is       -3.410605131648481E-013
   GDM::trust : predicted energy change was   -1.854416820613689E-013
   GDM::trust : updated trust radius is        0.330000000000000     
   GDM:         diagonal hessian shift is      0.000000000000000E+000
   GDM::PreWSS: input subspace size is                 15
   GDM::PreWSS: working subspace size set to           13
   GDM::PrEWSS: # of linearly dependent vectors =            0
   GDM::PrEWSS: Max dev from orthonormality =   3.520406188783909E-012
   GDM::BFGS:   lowest Hinv e-value    0.217817784686332     
   GDM::BFGS:   highest Hinv e-value    3.97397207016179     
   GDM::      : max scaling in EWCs is          2.82842712474619     
   GDM::      : max rotation in step is        8.752316528083034E-008
   GDM::        grad.step =  -2.642788601664906E-014
   ------- Leaving GDM -- hopefully with a step in the right direction! --------
 
   50    -347.3352000901      4.83E-08  Gap = -5.31 eV  Normal BFGS step
 
   ------------------- Entering Geometric Direct Minimization ------------------
   GDM::trust : actual energy change is        2.273736754432321E-013
   GDM::trust : predicted energy change was   -3.964182902497361E-014
   GDM::trust : updated trust radius is        0.108900000000000     
   GDM::WARNING energy changes are now smaller than effective accuracy.
   GDM::        calculation will continue, but THRESH should be increased
   GDM::        or SCF_CONVERGENCE decreased.
   GDM::        effective_thresh =   2.300000000000000E-010
   GDM:         diagonal hessian shift is      0.000000000000000E+000
   GDM::PreWSS: input subspace size is                 14
   GDM::PreWSS: working subspace size set to           14
   GDM::PrEWSS: # of linearly dependent vectors =            1
   GDM::PrEWSS: Max dev from orthonormality =   9.948430967909871E-013
   GDM::BFGS:   lowest Hinv e-value    0.208145048455207     
   GDM::BFGS:   highest Hinv e-value    3.84593514705114     
   GDM::      : max scaling in EWCs is          2.82842712474619     
   GDM::      : max rotation in step is       -7.907627074207175E-008
   GDM::        grad.step =  -1.037483845708738E-014
   ------- Leaving GDM -- hopefully with a step in the right direction! --------
 
   51    -347.3352000901      4.88E-08  Gap = -5.31 eV  Normal BFGS step
 
   ------------------- Entering Geometric Direct Minimization ------------------
   GDM::trust : actual energy change is        5.684341886080801E-014
   GDM::trust : predicted energy change was   -1.556225768563107E-014
   GDM::trust : updated trust radius is        0.108900000000000     
   GDM::WARNING energy changes are now smaller than effective accuracy.
   GDM::        calculation will continue, but THRESH should be increased
   GDM::        or SCF_CONVERGENCE decreased.
   GDM::        effective_thresh =   2.300000000000000E-010
   GDM:         diagonal hessian shift is      0.000000000000000E+000
   GDM::PreWSS: input subspace size is                 15
   GDM::PreWSS: working subspace size set to           14
   GDM::PrEWSS: # of linearly dependent vectors =            0
   GDM::PrEWSS: Max dev from orthonormality =   2.805842710951190E-011
   GDM::BFGS:   lowest Hinv e-value    0.198866503608548     
   GDM::BFGS:   highest Hinv e-value    3.71599608819358     
   GDM::      : max scaling in EWCs is          2.82842712474619     
   GDM::      : max rotation in step is        1.813027688957638E-008
   GDM::        grad.step =  -3.607795621408352E-015
   ------- Leaving GDM -- hopefully with a step in the right direction! --------
 
   52    -347.3352000901      3.11E-08  Gap = -5.31 eV  Normal BFGS step
 
   ------------------- Entering Geometric Direct Minimization ------------------
   GDM::trust : actual energy change is       -4.547473508864641E-013
   GDM::trust : predicted energy change was   -5.411693432112529E-015
   GDM::trust : updated trust radius is        0.330000000000000     
   GDM:         diagonal hessian shift is      0.000000000000000E+000
   GDM::PreWSS: input subspace size is                 15
   GDM::PreWSS: working subspace size set to           13
   GDM::PrEWSS: # of linearly dependent vectors =            0
   GDM::PrEWSS: Max dev from orthonormality =   3.164898898511126E-012
   GDM::BFGS:   lowest Hinv e-value    0.198475288679623     
   GDM::BFGS:   highest Hinv e-value    3.31476477414029     
   GDM::      : max scaling in EWCs is          2.82842712474619     
   GDM::      : max rotation in step is        1.710475999374832E-008
   GDM::        grad.step =  -5.210749196483707E-016
   ------- Leaving GDM -- hopefully with a step in the right direction! --------
 
   53    -347.3352000901      5.17E-09 Convergence criterion met
 ---------------------------------------
 One-Electron    Energy =  -852.6273193104
 Total Coulomb   Energy =   364.2638317540
 Alpha Exchange  Energy =    -3.9852316644
 Beta  Exchange  Energy =    -3.6527027690
 DFT   Exchange  Energy =   -30.6166325214
 DFT Correlation Energy =    -1.9830153239
 Nuclear Repu.   Energy =   181.2658697450
 Nuclear Attr.   Energy = -1176.1937742749
 Kinetic         Energy =   323.5664549645
 <S^2> = 2.0247
 SCF time:  CPU 208.50 s  wall 29.03 s
 SCF   energy in the final basis set = -347.3352000901
 Total energy in the final basis set = -347.3352000901
 
 --------------------------------------------------------------
 
                    Orbital Energies (a.u.)
 --------------------------------------------------------------
 
 Alpha MOs
 -- Occupied --
-19.258 -19.251 -19.195 -19.193  -2.061  -1.329  -1.314  -1.256
 -1.184  -0.941  -0.896  -0.831  -0.531  -0.519  -0.487  -0.451
 -0.405  -0.401  -0.374  -0.368  -0.358  -0.311  -0.280
 -- Virtual --
 -0.120  -0.038  -0.012  -0.003   0.004   0.015   0.017   0.040
  0.091   0.105   0.106   0.144   0.153   0.158   0.161   0.168
  0.193   0.202   0.203   0.217   0.218   0.230   0.236   0.248
  0.258   0.269   0.282   0.305   0.311   0.364   0.418   0.425
  0.752   0.764   1.056   1.079   1.091   1.121   1.132   1.145
  1.159   1.160   1.176   1.200   1.206   1.242   1.486   1.496
  1.595   1.612   1.614   1.681   1.686   1.723   1.736   1.743
  1.770   1.803   1.816   1.822   1.834   1.873   1.889   1.959
  2.068   2.144   2.264   2.465   2.469   3.021  17.017
 
 Beta MOs
 -- Occupied --
-19.250 -19.232 -19.180 -19.178  -2.061  -1.322  -1.308  -1.258
 -1.157  -0.900  -0.857  -0.791  -0.507  -0.476  -0.459  -0.391
 -0.379  -0.362  -0.358  -0.330  -0.262
 -- Virtual --
 -0.220  -0.153  -0.115  -0.038  -0.008  -0.002   0.009   0.017
  0.020   0.047   0.105   0.107   0.121   0.151   0.155   0.161
  0.162   0.177   0.196   0.206   0.212   0.219   0.225   0.235
  0.238   0.258   0.258   0.274   0.287   0.310   0.312   0.367
  0.422   0.428   0.756   0.767   1.075   1.099   1.115   1.131
  1.154   1.163   1.168   1.188   1.210   1.215   1.238   1.261
  1.500   1.511   1.620   1.632   1.643   1.702   1.712   1.753
  1.756   1.773   1.785   1.815   1.844   1.847   1.868   1.902
  1.922   1.985   2.090   2.166   2.282   2.475   2.499   3.035
 17.018
 --------------------------------------------------------------
 
          Ground-State Mulliken Net Atomic Charges

     Atom                 Charge (a.u.)    Spin (a.u.)
  --------------------------------------------------------
      1 Zr                    1.392119      -0.070019
      2 O                    -0.418594       0.571862
      3 O                    -0.329637       0.210615
      4 O                    -0.444592       0.565889
      5 O                    -0.199296       0.721653
  --------------------------------------------------------
  Sum of atomic charges =     0.000000
  Sum of spin   charges =     2.000000

 -----------------------------------------------------------------
                    Cartesian Multipole Moments
 -----------------------------------------------------------------
    Charge (ESU x 10^10)
                 0.0000
    Dipole Moment (Debye)
         X       0.6301      Y       0.4290      Z       0.0000
       Tot       0.7623
    Quadrupole Moments (Debye-Ang)
        XX     -52.1101     XY      -1.4508     YY     -49.7757
        XZ       0.0000     YZ       0.0000     ZZ     -36.9873
    Octopole Moments (Debye-Ang^2)
       XXX      17.3404    XXY      -4.6664    XYY      -5.8943
       YYY       7.1958    XXZ       0.0000    XYZ       0.0000
       YYZ       0.0000    XZZ       4.6718    YZZ       0.2185
       ZZZ       0.0000
    Hexadecapole Moments (Debye-Ang^3)
      XXXX    -472.0891   XXXY     -14.2581   XXYY    -114.5021
      XYYY      -2.0731   YYYY    -228.5725   XXXZ       0.0000
      XXYZ       0.0000   XYYZ       0.0000   YYYZ       0.0000
      XXZZ     -81.7224   XYZZ      -0.9065   YYZZ     -41.5736
      XZZZ       0.0000   YZZZ       0.0000   ZZZZ     -33.8843
 -----------------------------------------------------------------
Archival summary:
1\1\hpc3922\SP\ProcedureUnspecified\BasisUnspecified\r14(\liqiuy\FriJan1719:45:392020FriJan1719:45:392020\0\\#,ProcedureUnspecified,BasisUnspecified,\\28,3\Zr\O,1,1.71436\O,1,1.71618,2,118.801\O,1,1.86268,2,123.976,3,-180,0\O,4,1.31071,1,122.798,2,0,0\\\@

 Total job time:  29.91s(wall), 215.34s(cpu) 
 Fri Jan 17 19:45:39 2020

        *************************************************************
        *                                                           *
        *  Thank you very much for using Q-Chem.  Have a nice day.  *
        *                                                           *
        *************************************************************


0 sent ACK to 0 
now end server 0 ... 
cleanup process ... done

Running Job 2 of 2 ZrOx.in
qchem ZrOx.in_31684.1 /tmp/5732719.priya/ZrOx.save/ 1
/usr/usc/qchem/4.4/bin/mpi/mpirun_qchem -machinefile /usr/usc/qchem/4.4/bin/mpi/machines -np 1 /usr/usc/qchem/4.4/exe/qcprog.exe ZrOx.in_31684.1 /tmp/5732719.priya/ZrOx.save/

Process 0 of 1 is on hpc3922.hpcc.usc.edu - thread support 0
initial socket setup ...start
initial socket setup ...done 
now start server 0 ... 
Check license passed

                  Welcome to Q-Chem
     A Quantum Leap Into The Future Of Chemistry


 Q-Chem 4.4, Q-Chem, Inc., Pleasanton, CA (2016)

 Y. Shao,  Z. Gan,  E. Epifanovsky,  A. T. B. Gilbert,  M. Wormit,  
 J. Kussmann,  A. W. Lange,  A. Behn,  J. Deng,  X. Feng,  D. Ghosh,  
 M. Goldey,  P. R. Horn,  L. D. Jacobson,  I. Kaliman,  F.Rob,  
 R. Z. Khaliullin,  T. Kus,  A. Landau,  J. Liu,  E. I. Proynov,  Y. M. Rhee,  
 R. M. Richard,  M. A. Rohrdanz,  R. P. Steele,  E. J. Sundstrom,  
 H. L. Woodcock III,  P. M. Zimmerman,  D. Zuev,  B. Albrecht,  E. Alguire,  
 B. Austin,  S. A. Baeppler,  G. J. O. Beran,  Y. A. Bernard,  E. Berquist,  
 K. Brandhorst,  K. B. Bravaya,  S. T. Brown,  D. Casanova,  C.-M. Chang,  
 Y. Chen,  S. H. Chien,  K. D. Closser,  M. P. Coons,  D. L. Crittenden,  
 S. Dasgupta,  M. Diedenhofen,  R. A. DiStasio Jr.,  H. Do,  A. D. Dutoi,  
 R. G. Edgar,  P.-T. Fang,  S. Fatehi,  Q. Feng,  L. Fusti-Molnar,  
 A. Ghysels,  A. Golubeva-Zadorozhnaya,  J. Gomes,  A. Gunina,  
 M. W. D. Hanson-Heine,  P. H. P. Harbach,  A. W. Hauser,  E. G. Hohenstein,  
 Z. C. Holden,  K. Hui,  T.-C. Jagau,  H. Ji,  B. Kaduk,  K. Khistyaev,  
 Jaehoon Kim,  Jihan Kim,  R. A. King,  P. Klunzinger,  D. Kosenkov,  
 T. Kowalczyk,  C. M. Krauter,  A. Kunitsa,  K. U. Lao,  A. Laurent,  
 K. V. Lawler,  D. Lefrancois,  S. Lehtola,  S. V. Levchenko,  C. Y. Lin,  
 Y.-S. Lin,  F. Liu,  E. Livshits,  R. C. Lochan,  A. Luenser,  P. Manohar,  
 S. F. Manzer,  S.-P. Mao,  Y. Mao,  N. Mardirossian,  A. V. Marenich,  
 L. A. Martinez-Martinez,  S. A. Maurer,  N. J. Mayhall,  J.-M. Mewes,  
 A. F. Morrison,  K. Nanda,  C. M. Oana,  R. Olivares-Amaya,  D. P. O'Neill,  
 J. A. Parkhill,  T. M. Perrine,  R. Peverati,  P. A. Pieniazek,  F. Plasser,  
 A. Prociuk,  D. R. Rehn,  E. Rosta,  N. J. Russ,  N. Sergueev,  
 S. M. Sharada,  S. Sharma,  D. W. Small,  A. Sodt,  T. Stauch,  T. Stein,  
 D. Stuck,  Y.-C. Su,  A. J. W. Thom,  T. Tsuchimochi,  L. Vogt,  O. Vydrov,  
 T. Wang,  M. A. Watson,  J. Wenzel,  A. White,  C. F. Williams,  
 V. Vanovschi,  S. Yeganeh,  S. R. Yost,  Z.-Q. You,  I. Y. Zhang,  X. Zhang,  
 Y. Zhao,  B. R. Brooks,  G. K. L. Chan,  D. M. Chipman,  C. J. Cramer,  
 W. A. Goddard III,  M. S. Gordon,  W. J. Hehre,  A. Klamt,  
 H. F. Schaefer III,  M. W. Schmidt,  C. D. Sherrill,  D. G. Truhlar,  
 A. Warshel,  X. Xu,  A. Aspuru-Guzik,  R. Baer,  A. T. Bell,  N. A. Besley,  
 J.-D. Chai,  A. Dreuw,  B. D. Dunietz,  T. R. Furlani,  S. R. Gwaltney,  
 C.-P. Hsu,  Y. Jung,  J. Kong,  D. S. Lambrecht,  W. Liang,  C. Ochsenfeld,  
 V. A. Rassolov,  L. V. Slipchenko,  J. E. Subotnik,  T. Van Voorhis,  
 J. M. Herbert,  A. I. Krylov,  P. M. W. Gill,  M. Head-Gordon

 Contributors to earlier versions of Q-Chem not listed above: 
 R. D. Adamson,  J. Baker,  E. F. C. Byrd,  A. K. Chakraborty,  C.-L. Cheng,  
 H. Dachsel,  R. J. Doerksen,  G. Hawkins,  A. Heyden,  S. Hirata,  
 G. Kedziora,  F. J. Keil,  C. Kelley,  P. P. Korambath,  W. Kurlancheek,  
 A. M. Lee,  M. S. Lee,  D. Liotard,  I. Lotan,  P. E. Maslen,  N. Nair,  
 D. Neuhauser,  R. Olson,  B. Peters,  J. Ritchie,  N. E. Schultz,  
 N. Shenvi,  A. C. Simmonett,  K. S. Thanthiriwatte,  Q. Wu,  W. Zhang

 Please cite Q-Chem as follows:
 Y. Shao et al., Mol. Phys. 113, 184-215 (2015)
 DOI: 10.1080/00268976.2014.952696

 Q-Chem 4.4.1 for Intel X86 Linux

 Parts of Q-Chem use Armadillo 5.200.1 (Boston Tea Smuggler).
 http://arma.sourceforge.net/

 Q-Chem begins on Fri Jan 17 19:45:43 2020  

Host: 
0

     Scratch files written to /tmp/5732719.priya/ZrOx.save//
 Jul2716 11668_ 21447  21445 5558   
 Parallel job on  1  processors
Processing $rem in /usr/usc/qchem/4.4/config/preferences.
 MEM_TOTAL  2000 
The previous job contains 0 fragments, simply inherited here

Checking the input file for inconsistencies... 	...done.

--------------------------------------------------------------
User input:
--------------------------------------------------------------

$comment
-----------------------
A GEOMETRY OPTIMIZATION
-----------------------
$end

$molecule
READ
$end

$rem
JOBTYPE   OPT
METHOD   B3LYP
BASIS   GEN
ECP   GEN
SCF_GUESS   READ
MAX_SCF_CYCLES   200
SCF_CONVERGENCE 8
SCF_PRINT 1
PDB_PRINT 2
THRESH 14
VARTHRESH 14
INCDFT FALSE
SYMMETRY False
Sym_ignore True
SCF_ALGORITHM GDM
XC_GRID 000128000302
GEOM_OPT_MAX_CYCLES 200
DFT_D           EMPIRICAL_GRIMME3
DFT_D3_S6       1000
DFT_D3_RS6     1261
DFT_D3_S8      1703
DFT_D3_3BODY    FALSE
SCF_PRINT 1
PDB_PRINT 2
$end

$basis
O
6-31+G**
****
S
6-31+G**
****
Zr
LanL2DZ
****
$end

$ecp
Zr
LanL2DZ
****
$end

--------------------------------------------------------------
 ----------------------------------------------------------------
             Standard Nuclear Orientation (Angstroms)
    I     Atom           X                Y                Z
 ----------------------------------------------------------------
    1      Zr      0.3103900000    -0.0017000000     0.0000000000
    2      O       1.5845700000     1.1479700000     0.0000000000
    3      O      -1.4318500000     0.6572200000     0.0000000000
    4      O       0.7035800000    -1.6703600000     0.0000000000
    5      O      -2.4856700000    -0.1221500000     0.0000000000
 ----------------------------------------------------------------
 Nuclear Repulsion Energy =   181.2658697391 hartrees
 There are       23 alpha and       21 beta electrons

 Q-Chem warning in module /home/scratch/svnadmin/11668_zgan/qchem/forms1/BasisType.C, line 1419:

 Setting pure/cartesian flag to 2111 for general basis


 Requested basis set is non-standard
 There are 28 shells and 94 basis functions

 Total QAlloc Memory Limit   2000 MB
 Mega-Array Size        61 MB
 MEM_STATIC part        62 MB
 A cutoff of  1.0D-14 yielded    394 shell pairs
 There are      4559 function pairs (      5172 Cartesian)
 
 -------------------------------------------------------
 OpenMP Integral Computing Module                       
 Release: version 1.0, May 2013, Q-Chem Inc. Pittsburgh 
 -------------------------------------------------------
 Integral Job Info:
 Integral job number is                      11
 Integral operator is                         1
 short-range coefficients                     0
 long-range coefficients              100000000
 Omega coefficients                           0
 if combine SR and LR in K                    0
 Integral screening is                        0
 Integral computing path is                   2
 max size of driver memory is            800000
 size of driver memory is                593474
 size of scratch memory is             11771240
 max col of scratch BK array               1296
 max len of scratch array in speh3          155
 max len of scratch index in speh4           18
 max int batch size is                      520
 min int batch size is                       52
 fixed nKL is                                52
 max L of basis functions is                  2
 order of int derivative is                   0
 number of shells is                         28
 number of basis is                         100
 number of cartesian basis is               100
 number of contracted shell pairs           394
 number of primitive shell pairs           1806
 maxK2 (contraction) of shell pair           36
 max number of K2 of shell pair               1
 max number of CS2 of shell pair             42
 max number of PS2 of shell pair            204
 mem total for path MDJ                   21208
 -------------------------------------------------------
 Requested basis set is non-standard
 Compound shells will be simplified
 There are 40 shells and 94 basis functions
 A cutoff of  1.0D-14 yielded    801 shell pairs
 There are      4523 function pairs (      5136 Cartesian)
 Smallest overlap matrix eigenvalue = 4.10E-04

 Scale SEOQF with 1.000000e-01/1.000000e-01/1.000000e-01

 Standard Electronic Orientation quadrupole field applied
 Nucleus-field energy     =     0.0000000059 hartrees
 Guess MOs from SCF MO coefficient file
 Reading MOs from coefficient file
 Reading MOs from coefficient file
 An unrestricted hybrid HF-DFT SCF calculation will be
 performed using Geometric Direct Minimization
 Exchange:     0.2000 Hartree-Fock + 0.0800 Slater + 0.7200 B88
 Correlation:  0.1900 VWN1RPA + 0.8100 LYP
 Using Euler-Maclaurin-Lebedev (128,302) quadrature formula
 Dispersion:   Grimme D3
 SCF converges when RMS gradient is below 1.0E-08
 Maximum number of minimization steps = 200
[...]
   GDM::PreWSS: working subspace size set to            9
   GDM::PrEWSS: # of linearly dependent vectors =            8
   GDM::PrEWSS: Max dev from orthonormality =   3.462508058049707E-015
   GDM::BFGS:   lowest Hinv e-value    0.197554315236721     
   GDM::BFGS:   highest Hinv e-value    3.57588403131255     
   GDM::      : max scaling in EWCs is          2.82842712474619     
   GDM::      : max rotation in step is       -3.226637084855924E-005
   GDM::        grad.step =  -2.462307874867205E-010
   ------- Leaving GDM -- hopefully with a step in the right direction! --------
 
   12    -347.3891192007      5.38E-06  Gap = 0.00 eV  Normal BFGS step
 
   ------------------- Entering Geometric Direct Minimization ------------------
   GDM::trust : actual energy change is       -8.867573342286050E-011
   GDM::trust : predicted energy change was   -3.693461812300810E-010
   GDM::trust : updated trust radius is        0.330000000000000     
   GDM:         diagonal hessian shift is      0.000000000000000E+000
   GDM::PreWSS: input subspace size is                 10
   GDM::PreWSS: working subspace size set to           10
   GDM::PrEWSS: # of linearly dependent vectors =            9
   GDM::PrEWSS: Max dev from orthonormality =   3.358424649491099E-015
   GDM::BFGS:   lowest Hinv e-value    0.196894738304879     
   GDM::BFGS:   highest Hinv e-value    4.96474680221608     
   GDM::      : max scaling in EWCs is          2.82842712474619     
   GDM::      : max rotation in step is       -1.588308529541304E-005
   GDM::        grad.step =  -1.355191110368652E-010
   ------- Leaving GDM -- hopefully with a step in the right direction! --------
 
   13    -347.3891192008      2.65E-06  Gap = 0.00 eV  Normal BFGS step
 
   ------------------- Entering Geometric Direct Minimization ------------------
   GDM::trust : actual energy change is       -7.679545888095163E-011
   GDM::trust : predicted energy change was   -2.032786665552978E-010
   GDM::trust : updated trust radius is        0.330000000000000     
   GDM:         diagonal hessian shift is      0.000000000000000E+000
   GDM::PreWSS: input subspace size is                 11
   GDM::PreWSS: working subspace size set to           11
   GDM::PrEWSS: # of linearly dependent vectors =           10
   GDM::PrEWSS: Max dev from orthonormality =   9.457712391025552E-015
   GDM::BFGS:   lowest Hinv e-value    0.198393426112840     
   GDM::BFGS:   highest Hinv e-value    5.30932020787832     
   GDM::      : max scaling in EWCs is          2.82842712474619     
   GDM::      : max rotation in step is       -5.965252367059774E-006
   GDM::        grad.step =  -2.775841985710384E-011
   ------- Leaving GDM -- hopefully with a step in the right direction! --------
 
   14    -347.3891192009      1.97E-06  Gap = 0.00 eV  Normal BFGS step
 
   ------------------- Entering Geometric Direct Minimization ------------------
   GDM::trust : actual energy change is       -1.568878360558301E-011
   GDM::trust : predicted energy change was   -4.163762978565575E-011
   GDM::trust : updated trust radius is        0.330000000000000     
   GDM:         diagonal hessian shift is      0.000000000000000E+000
   GDM::PreWSS: input subspace size is                 12
   GDM::PreWSS: working subspace size set to           12
   GDM::PrEWSS: # of linearly dependent vectors =           11
   GDM::PrEWSS: Max dev from orthonormality =   2.371020046965100E-014
   GDM::BFGS:   lowest Hinv e-value    0.198717117017229     
   GDM::BFGS:   highest Hinv e-value    5.81219996632053     
   GDM::      : max scaling in EWCs is          2.82842712474619     
   GDM::      : max rotation in step is       -2.735567954845728E-006
   GDM::        grad.step =  -3.661839024952586E-012
   ------- Leaving GDM -- hopefully with a step in the right direction! --------
 
   15    -347.3891192009      5.41E-07  Gap = 0.00 eV  Normal BFGS step
 
   ------------------- Entering Geometric Direct Minimization ------------------
   GDM::trust : actual energy change is       -2.160049916710705E-012
   GDM::trust : predicted energy change was   -5.492758537428878E-012
   GDM::trust : updated trust radius is        0.330000000000000     
   GDM:         diagonal hessian shift is      0.000000000000000E+000
   GDM::PreWSS: input subspace size is                 13
   GDM::PreWSS: working subspace size set to           13
   GDM::PrEWSS: # of linearly dependent vectors =           12
   GDM::PrEWSS: Max dev from orthonormality =   8.119026284614250E-014
   GDM::BFGS:   lowest Hinv e-value    0.198587339818029     
   GDM::BFGS:   highest Hinv e-value    5.85445186698318     
   GDM::      : max scaling in EWCs is          2.82842712474619     
   GDM::      : max rotation in step is       -3.041216967576831E-007
   GDM::        grad.step =  -3.181802659264139E-013
   ------- Leaving GDM -- hopefully with a step in the right direction! --------
 
   16    -347.3891192009      1.27E-07  Gap = 0.00 eV  Normal BFGS step
 
   ------------------- Entering Geometric Direct Minimization ------------------
   GDM::trust : actual energy change is       -5.684341886080801E-014
   GDM::trust : predicted energy change was   -4.772703988896208E-013
   GDM::trust : updated trust radius is        0.330000000000000     
   GDM:         diagonal hessian shift is      0.000000000000000E+000
   GDM::PreWSS: input subspace size is                 14
   GDM::PreWSS: working subspace size set to           14
   GDM::PrEWSS: # of linearly dependent vectors =           13
   GDM::PrEWSS: Max dev from orthonormality =   1.576776903489119E-013
   GDM::BFGS:   lowest Hinv e-value    0.198624365656665     
   GDM::BFGS:   highest Hinv e-value    5.71907132557284     
   GDM::      : max scaling in EWCs is          2.82842712474619     
   GDM::      : max rotation in step is        1.613556408080103E-007
   GDM::        grad.step =  -4.589427958812076E-014
   ------- Leaving GDM -- hopefully with a step in the right direction! --------
 
   17    -347.3891192009      8.63E-08  Gap = 0.00 eV  Normal BFGS step
 
   ------------------- Entering Geometric Direct Minimization ------------------
   GDM::trust : actual energy change is       -2.273736754432321E-013
   GDM::trust : predicted energy change was   -6.884141938218112E-014
   GDM::trust : updated trust radius is        0.330000000000000     
   GDM:         diagonal hessian shift is      0.000000000000000E+000
   GDM::PreWSS: input subspace size is                 15
   GDM::PreWSS: working subspace size set to           15
   GDM::PrEWSS: # of linearly dependent vectors =           14
   GDM::PrEWSS: Max dev from orthonormality =   2.561215128871197E-013
   GDM::BFGS:   lowest Hinv e-value    0.198670977015642     
   GDM::BFGS:   highest Hinv e-value    5.78196508372608     
   GDM::      : max scaling in EWCs is          2.82842712474619     
   GDM::      : max rotation in step is       -5.368967702787626E-008
   GDM::        grad.step =  -7.417434153253604E-015
   ------- Leaving GDM -- hopefully with a step in the right direction! --------
 
   18    -347.3891192009      2.10E-08  Gap = 0.00 eV  Normal BFGS step
 
   ------------------- Entering Geometric Direct Minimization ------------------
   GDM::trust : actual energy change is        2.273736754432321E-013
   GDM::trust : predicted energy change was   -1.112615122988040E-014
   GDM::trust : updated trust radius is        0.108900000000000     
   GDM::WARNING energy changes are now smaller than effective accuracy.
   GDM::        calculation will continue, but THRESH should be increased
   GDM::        or SCF_CONVERGENCE decreased.
   GDM::        effective_thresh =   2.300000000000000E-010
   GDM:         diagonal hessian shift is      0.000000000000000E+000
   GDM::PreWSS: input subspace size is                 16
   GDM::PreWSS: working subspace size set to           16
   GDM::PrEWSS: # of linearly dependent vectors =           15
   GDM::PrEWSS: Max dev from orthonormality =   6.143835440397538E-013
   GDM::BFGS:   lowest Hinv e-value    0.198515307517852     
   GDM::BFGS:   highest Hinv e-value    5.69097139853576     
   GDM::      : max scaling in EWCs is          2.82842712474619     
   GDM::      : max rotation in step is       -1.794153064898907E-008
   GDM::        grad.step =  -7.233964291923452E-016
   ------- Leaving GDM -- hopefully with a step in the right direction! --------
 
   19    -347.3891192009      6.95E-09 Convergence criterion met
 ---------------------------------------
 One-Electron    Energy =  -821.8200543294
 Total Coulomb   Energy =   348.6796300342
 Alpha Exchange  Energy =    -3.9572352511
 Beta  Exchange  Energy =    -3.6401507395
 DFT   Exchange  Energy =   -30.4560952503
 DFT Correlation Energy =    -1.9652844119
 Nuclear Repu.   Energy =   165.7700707471
 Nuclear Attr.   Energy = -1144.2109924638
 Kinetic         Energy =   322.3909381345
 <S^2> = 2.0210
 SCF time:  CPU 72.64 s  wall 11.32 s
 SCF   energy in the final basis set = -347.3891192009
 Total energy in the final basis set = -347.3891192009
 
 --------------------------------------------------------------
 
                    Orbital Energies (a.u.)
 --------------------------------------------------------------
 
 Alpha MOs
 -- Occupied --
-19.264 -19.255 -19.227 -19.173  -2.095  -1.319  -1.304  -1.296
 -1.191  -0.964  -0.896  -0.836  -0.530  -0.510  -0.476  -0.437
 -0.397  -0.381  -0.363  -0.359  -0.347  -0.311  -0.276
 -- Virtual --
 -0.144  -0.085  -0.063  -0.016  -0.011  -0.008  -0.002   0.019
  0.033   0.078   0.094   0.143   0.145   0.147   0.163   0.166
  0.175   0.189   0.192   0.198   0.208   0.210   0.238   0.244
  0.253   0.253   0.263   0.283   0.290   0.352   0.389   0.423
  0.635   0.716   1.054   1.090   1.097   1.099   1.111   1.153
  1.156   1.159   1.164   1.197   1.202   1.353   1.489   1.499
  1.528   1.590   1.621   1.658   1.689   1.730   1.730   1.738
  1.756   1.759   1.803   1.810   1.830   1.859   1.892   1.898
  1.915   2.027   2.283   2.467   2.477   3.022  16.084
 
 Beta MOs
 -- Occupied --
-19.256 -19.235 -19.205 -19.167  -2.097  -1.320  -1.305  -1.299
 -1.161  -0.898  -0.877  -0.795  -0.509  -0.463  -0.439  -0.373
 -0.363  -0.352  -0.347  -0.332  -0.257
 -- Virtual --
 -0.214  -0.150  -0.138  -0.084  -0.062  -0.011  -0.010  -0.002
  0.014   0.021   0.039   0.088   0.095   0.147   0.149   0.153
  0.164   0.171   0.178   0.196   0.200   0.204   0.210   0.221
  0.241   0.245   0.254   0.256   0.269   0.287   0.291   0.353
  0.392   0.426   0.639   0.718   1.072   1.108   1.122   1.142
  1.151   1.158   1.168   1.178   1.193   1.210   1.223   1.363
  1.503   1.515   1.547   1.617   1.648   1.688   1.707   1.748
  1.767   1.780   1.785   1.806   1.816   1.821   1.850   1.879
  1.925   1.926   1.944   2.036   2.302   2.483   2.502   3.036
 16.084
 --------------------------------------------------------------
 
          Ground-State Mulliken Net Atomic Charges

     Atom                 Charge (a.u.)    Spin (a.u.)
  --------------------------------------------------------
      1 Zr                    1.583417      -0.128055
      2 O                    -0.506794       0.921778
      3 O                    -0.319182       0.252246
      4 O                    -0.489982       0.230372
      5 O                    -0.267458       0.723659
  --------------------------------------------------------
  Sum of atomic charges =     0.000000
  Sum of spin   charges =     2.000000

 -----------------------------------------------------------------
                    Cartesian Multipole Moments
 -----------------------------------------------------------------
    Charge (ESU x 10^10)
                 0.0000
    Dipole Moment (Debye)
         X       0.1972      Y       1.2534      Z       0.0000
       Tot       1.2688
    Quadrupole Moments (Debye-Ang)
        XX     -57.4159     XY       0.0979     YY     -51.2965
        XZ       0.0000     YZ       0.0000     ZZ     -37.7769
    Octopole Moments (Debye-Ang^2)
       XXX      14.1214    XXY      -7.1711    XYY     -13.6926
       YYY      13.6925    XXZ       0.0000    XYZ       0.0000
       YYZ       0.0000    XZZ       3.5114    YZZ       0.6294
       ZZZ       0.0000
    Hexadecapole Moments (Debye-Ang^3)
      XXXX    -660.2020   XXXY      -6.9081   XXYY    -152.3814
      XYYY       8.3833   YYYY    -245.7998   XXXZ       0.0000
      XXYZ       0.0000   XYYZ       0.0000   YYYZ       0.0000
      XXZZ    -109.0416   XYZZ       1.6985   YYZZ     -44.0587
      XZZZ       0.0000   YZZZ       0.0000   ZZZZ     -36.5463
 -----------------------------------------------------------------
 Calculating analytic gradient of the SCF energy
 Gradient of SCF Energy
            1           2           3           4           5
    1  -0.0002236   0.0001511  -0.0000766   0.0000916   0.0000575
    2  -0.0002763   0.0001272   0.0001375   0.0000244  -0.0000129
    3  -0.0000000   0.0000000   0.0000000   0.0000000  -0.0000000
 Max gradient component =       2.763E-04
 RMS gradient           =       1.162E-04
 Gradient time:  CPU 10.61 s  wall 1.70 s
 Geometry Optimization Parameters
   NAtoms,    NIC,     NZ,  NCons,   NDum,   NFix, NCnnct, MaxDiis
        5      27       0       0       0       0       0       0

 Cartesian Hessian Update
 Hessian Updated using BFGS Update


** GEOMETRY OPTIMIZATION IN DELOCALIZED INTERNAL COORDINATES **
   Searching for a Minimum

   Optimization Cycle:  21

                       Coordinates (Angstroms)
     ATOM                X               Y               Z
      1  Zr        0.3779885340   -0.0448559790    0.0000000000
      2  O         1.8684111812    1.2494176676    0.0000000000
      3  O        -1.6172494408    0.4132319215    0.0000000000
      4  O         0.9444405679   -1.7343992389    0.0000000000
      5  O        -2.8925708424    0.1275856288    0.0000000000
   Point Group: c1    Number of degrees of freedom:     9


   Energy is   -347.389119201

 Hessian Updated using BFGS Update

  7 Hessian modes will be used to form the next step
  Hessian Eigenvalues:
     0.005418    0.022237    0.058522    0.106049    0.151644    0.454304
     0.480498

 Minimum Search - Taking Simple RFO Step
 Searching for Lamda that Minimizes Along All modes
 Value Taken    Lamda =  -0.00000164
 Step Taken.  Stepsize is  0.010707

                             Maximum     Tolerance    Cnvgd?
         Gradient           0.000191      0.000300     YES
         Displacement       0.008335      0.001200      NO
         Energy change      0.000000      0.000001     YES


                       Distance Matrix (Angstroms)
             Zr(  1)   O (  2)   O (  3)   O (  4)
   O (  2)  1.973956
   O (  3)  2.047149  3.584555
   O (  4)  1.781972  3.123601  3.342839
   O (  5)  3.275102  4.891366  1.306919  4.264932
 
 Final energy is   -347.389119200899     


 ******************************
 **  OPTIMIZATION CONVERGED  **
 ******************************

                       Coordinates (Angstroms)
     ATOM                X               Y               Z
      1  Zr        0.3779885340   -0.0448559790    0.0000000000
      2  O         1.8684111812    1.2494176676    0.0000000000
      3  O        -1.6172494408    0.4132319215    0.0000000000
      4  O         0.9444405679   -1.7343992389    0.0000000000
      5  O        -2.8925708424    0.1275856288    0.0000000000

Z-matrix Print:
$molecule
0 3
Zr
O  1 1.781972
O  1 1.973956 2 112.436120
O  1 2.047149 2 121.465207 3 -180.000000 0
O  4 1.306919 1 154.444778 2 0.000000 0
$end

 
 --------------------------------------------------------------
 
                    Orbital Energies (a.u.)
 --------------------------------------------------------------
 
 Alpha MOs
 -- Occupied --
-19.264 -19.255 -19.227 -19.173  -2.095  -1.319  -1.304  -1.296
 -1.191  -0.964  -0.896  -0.836  -0.530  -0.510  -0.476  -0.437
 -0.397  -0.381  -0.363  -0.359  -0.347  -0.311  -0.276
 -- Virtual --
 -0.144  -0.085  -0.063  -0.016  -0.011  -0.008  -0.002   0.019
  0.033   0.078   0.094   0.143   0.145   0.147   0.163   0.166
  0.175   0.189   0.192   0.198   0.208   0.210   0.238   0.244
  0.253   0.253   0.263   0.283   0.290   0.352   0.389   0.423
  0.635   0.716   1.054   1.090   1.097   1.099   1.111   1.153
  1.156   1.159   1.164   1.197   1.202   1.353   1.489   1.499
  1.528   1.590   1.621   1.658   1.689   1.730   1.730   1.738
  1.756   1.759   1.803   1.810   1.830   1.859   1.892   1.898
  1.915   2.027   2.283   2.467   2.477   3.022  16.084
 
 Beta MOs
 -- Occupied --
-19.256 -19.235 -19.205 -19.167  -2.097  -1.320  -1.305  -1.299
 -1.161  -0.898  -0.877  -0.795  -0.509  -0.463  -0.439  -0.373
 -0.363  -0.352  -0.347  -0.332  -0.257
 -- Virtual --
 -0.214  -0.150  -0.138  -0.084  -0.062  -0.011  -0.010  -0.002
  0.014   0.021   0.039   0.088   0.095   0.147   0.149   0.153
  0.164   0.171   0.178   0.196   0.200   0.204   0.210   0.221
  0.241   0.245   0.254   0.256   0.269   0.287   0.291   0.353
  0.392   0.426   0.639   0.718   1.072   1.108   1.122   1.142
  1.151   1.158   1.168   1.178   1.193   1.210   1.223   1.363
  1.503   1.515   1.547   1.617   1.648   1.688   1.707   1.748
  1.767   1.780   1.785   1.806   1.816   1.821   1.850   1.879
  1.925   1.926   1.944   2.036   2.302   2.483   2.502   3.036
 16.084
 --------------------------------------------------------------
 
          Ground-State Mulliken Net Atomic Charges

     Atom                 Charge (a.u.)    Spin (a.u.)
  --------------------------------------------------------
      1 Zr                    1.583417      -0.128055
      2 O                    -0.506794       0.921778
      3 O                    -0.319182       0.252246
      4 O                    -0.489982       0.230372
      5 O                    -0.267458       0.723659
  --------------------------------------------------------
  Sum of atomic charges =     0.000000
  Sum of spin   charges =     2.000000

 -----------------------------------------------------------------
                    Cartesian Multipole Moments
 -----------------------------------------------------------------
    Charge (ESU x 10^10)
                 0.0000
    Dipole Moment (Debye)
         X       0.1972      Y       1.2534      Z       0.0000
       Tot       1.2688
    Quadrupole Moments (Debye-Ang)
        XX     -57.4159     XY       0.0979     YY     -51.2965
        XZ       0.0000     YZ       0.0000     ZZ     -37.7769
    Octopole Moments (Debye-Ang^2)
       XXX      14.1214    XXY      -7.1711    XYY     -13.6926
       YYY      13.6925    XXZ       0.0000    XYZ       0.0000
       YYZ       0.0000    XZZ       3.5114    YZZ       0.6294
       ZZZ       0.0000
    Hexadecapole Moments (Debye-Ang^3)
      XXXX    -660.2020   XXXY      -6.9081   XXYY    -152.3814
      XYYY       8.3833   YYYY    -245.7998   XXXZ       0.0000
      XXYZ       0.0000   XYYZ       0.0000   YYYZ       0.0000
      XXZZ    -109.0416   XYZZ       1.6985   YYZZ     -44.0587
      XZZZ       0.0000   YZZZ       0.0000   ZZZZ     -36.5463
 -----------------------------------------------------------------
Archival summary:
1\1\hpc3922\OPT\ProcedureUnspecified\BasisUnspecified\r14(\liqiuy\FriJan1719:50:582020FriJan1719:50:582020\0\\#,OPT,ProcedureUnspecified,BasisUnspecified,\\28,3\Zr\O,1,1.78197\O,1,1.97396,2,112.436\O,1,2.04715,2,121.465,3,-180,0\O,4,1.30692,1,154.445,2,0,0\\\@

 Total job time:  315.42s(wall), 2142.23s(cpu) 
 Fri Jan 17 19:50:58 2020

        *************************************************************
        *                                                           *
        *  Thank you very much for using Q-Chem.  Have a nice day.  *
        *                                                           *
        *************************************************************


0 sent ACK to 0 
now end server 0 ... 
cleanup process ... done
