
Running Job 1 of 2 ZrOx.in
qchem ZrOx.in_16310.0 /tmp/5732728.priya/ZrOx.save/ 1
/usr/usc/qchem/4.4/bin/mpi/mpirun_qchem -machinefile /usr/usc/qchem/4.4/bin/mpi/machines -np 1 /usr/usc/qchem/4.4/exe/qcprog.exe ZrOx.in_16310.0 /tmp/5732728.priya/ZrOx.save/

Process 0 of 1 is on hpc3461.hpcc.usc.edu - thread support 0
initial socket setup ...start
initial socket setup ...done 
now start server 0 ... 
Check license passed

                  Welcome to Q-Chem
     A Quantum Leap Into The Future Of Chemistry


 Q-Chem 4.4, Q-Chem, Inc., Pleasanton, CA (2016)

 Y. Shao,  Z. Gan,  E. Epifanovsky,  A. T. B. Gilbert,  M. Wormit,  
 J. Kussmann,  A. W. Lange,  A. Behn,  J. Deng,  X. Feng,  D. Ghosh,  
 M. Goldey,  P. R. Horn,  L. D. Jacobson,  I. Kaliman,  F.Rob,  
 R. Z. Khaliullin,  T. Kus,  A. Landau,  J. Liu,  E. I. Proynov,  Y. M. Rhee,  
 R. M. Richard,  M. A. Rohrdanz,  R. P. Steele,  E. J. Sundstrom,  
 H. L. Woodcock III,  P. M. Zimmerman,  D. Zuev,  B. Albrecht,  E. Alguire,  
 B. Austin,  S. A. Baeppler,  G. J. O. Beran,  Y. A. Bernard,  E. Berquist,  
 K. Brandhorst,  K. B. Bravaya,  S. T. Brown,  D. Casanova,  C.-M. Chang,  
 Y. Chen,  S. H. Chien,  K. D. Closser,  M. P. Coons,  D. L. Crittenden,  
 S. Dasgupta,  M. Diedenhofen,  R. A. DiStasio Jr.,  H. Do,  A. D. Dutoi,  
 R. G. Edgar,  P.-T. Fang,  S. Fatehi,  Q. Feng,  L. Fusti-Molnar,  
 A. Ghysels,  A. Golubeva-Zadorozhnaya,  J. Gomes,  A. Gunina,  
 M. W. D. Hanson-Heine,  P. H. P. Harbach,  A. W. Hauser,  E. G. Hohenstein,  
 Z. C. Holden,  K. Hui,  T.-C. Jagau,  H. Ji,  B. Kaduk,  K. Khistyaev,  
 Jaehoon Kim,  Jihan Kim,  R. A. King,  P. Klunzinger,  D. Kosenkov,  
 T. Kowalczyk,  C. M. Krauter,  A. Kunitsa,  K. U. Lao,  A. Laurent,  
 K. V. Lawler,  D. Lefrancois,  S. Lehtola,  S. V. Levchenko,  C. Y. Lin,  
 Y.-S. Lin,  F. Liu,  E. Livshits,  R. C. Lochan,  A. Luenser,  P. Manohar,  
 S. F. Manzer,  S.-P. Mao,  Y. Mao,  N. Mardirossian,  A. V. Marenich,  
 L. A. Martinez-Martinez,  S. A. Maurer,  N. J. Mayhall,  J.-M. Mewes,  
 A. F. Morrison,  K. Nanda,  C. M. Oana,  R. Olivares-Amaya,  D. P. O'Neill,  
 J. A. Parkhill,  T. M. Perrine,  R. Peverati,  P. A. Pieniazek,  F. Plasser,  
 A. Prociuk,  D. R. Rehn,  E. Rosta,  N. J. Russ,  N. Sergueev,  
 S. M. Sharada,  S. Sharma,  D. W. Small,  A. Sodt,  T. Stauch,  T. Stein,  
 D. Stuck,  Y.-C. Su,  A. J. W. Thom,  T. Tsuchimochi,  L. Vogt,  O. Vydrov,  
 T. Wang,  M. A. Watson,  J. Wenzel,  A. White,  C. F. Williams,  
 V. Vanovschi,  S. Yeganeh,  S. R. Yost,  Z.-Q. You,  I. Y. Zhang,  X. Zhang,  
 Y. Zhao,  B. R. Brooks,  G. K. L. Chan,  D. M. Chipman,  C. J. Cramer,  
 W. A. Goddard III,  M. S. Gordon,  W. J. Hehre,  A. Klamt,  
 H. F. Schaefer III,  M. W. Schmidt,  C. D. Sherrill,  D. G. Truhlar,  
 A. Warshel,  X. Xu,  A. Aspuru-Guzik,  R. Baer,  A. T. Bell,  N. A. Besley,  
 J.-D. Chai,  A. Dreuw,  B. D. Dunietz,  T. R. Furlani,  S. R. Gwaltney,  
 C.-P. Hsu,  Y. Jung,  J. Kong,  D. S. Lambrecht,  W. Liang,  C. Ochsenfeld,  
 V. A. Rassolov,  L. V. Slipchenko,  J. E. Subotnik,  T. Van Voorhis,  
 J. M. Herbert,  A. I. Krylov,  P. M. W. Gill,  M. Head-Gordon

 Contributors to earlier versions of Q-Chem not listed above: 
 R. D. Adamson,  J. Baker,  E. F. C. Byrd,  A. K. Chakraborty,  C.-L. Cheng,  
 H. Dachsel,  R. J. Doerksen,  G. Hawkins,  A. Heyden,  S. Hirata,  
 G. Kedziora,  F. J. Keil,  C. Kelley,  P. P. Korambath,  W. Kurlancheek,  
 A. M. Lee,  M. S. Lee,  D. Liotard,  I. Lotan,  P. E. Maslen,  N. Nair,  
 D. Neuhauser,  R. Olson,  B. Peters,  J. Ritchie,  N. E. Schultz,  
 N. Shenvi,  A. C. Simmonett,  K. S. Thanthiriwatte,  Q. Wu,  W. Zhang

 Please cite Q-Chem as follows:
 Y. Shao et al., Mol. Phys. 113, 184-215 (2015)
 DOI: 10.1080/00268976.2014.952696

 Q-Chem 4.4.1 for Intel X86 Linux

 Parts of Q-Chem use Armadillo 5.200.1 (Boston Tea Smuggler).
 http://arma.sourceforge.net/

 Q-Chem begins on Fri Jan 17 19:47:10 2020  

Host: 
0

     Scratch files written to /tmp/5732728.priya/ZrOx.save//
 Jul2716 11668_ 21447  21445 5558   
 Parallel job on  1  processors
Processing $rem in /usr/usc/qchem/4.4/config/preferences.
 MEM_TOTAL  2000 

Checking the input file for inconsistencies... 	...done.

--------------------------------------------------------------
User input:
--------------------------------------------------------------
$comment
--------------------------------------------------------
A SINGLE POINT DFT CALCULATION WITH BASIS SET PROJECTION
--------------------------------------------------------
$end

$molecule
0 5
Zr 0.59930 -0.02147 -0.00009
O -1.37241 0.69306 -0.01081
O 1.33299 0.65178 1.43834
O 1.34420 0.63186 -1.44162
O 0.81685 -1.75444 0.01293
S -2.75186 -0.08017 0.00124
$end

$rem
JOBTYPE   SP
METHOD   B3LYP
BASIS   GEN
ECP   GEN
MAX_SCF_CYCLES   200
SCF_CONVERGENCE 8
SCF_ALGORITHM  DIIS_GDM
SCF_PRINT 1
PDB_PRINT 2
THRESH 14
VARTHRESH 14
INCDFT FALSE
SYMMETRY False
Sym_ignore True
SCF_ALGORITHM GDM
XC_GRID 000128000302
DFT_D           EMPIRICAL_GRIMME3
DFT_D3_S6       1000
DFT_D3_RS6     1261
DFT_D3_S8      1703
DFT_D3_3BODY    FALSE
$end

$basis
O
6-31+G**
****
S
6-31+G**
****
Zr
LanL2DZ
****
$end

$ecp
Zr
LanL2DZ
****
$end

--------------------------------------------------------------
 ----------------------------------------------------------------
             Standard Nuclear Orientation (Angstroms)
    I     Atom           X                Y                Z
 ----------------------------------------------------------------
    1      Zr      0.5993000000    -0.0214700000    -0.0000900000
    2      O      -1.3724100000     0.6930600000    -0.0108100000
    3      O       1.3329900000     0.6517800000     1.4383400000
    4      O       1.3442000000     0.6318600000    -1.4416200000
    5      O       0.8168500000    -1.7544400000     0.0129300000
    6      S      -2.7518600000    -0.0801700000     0.0012400000
 ----------------------------------------------------------------
 Nuclear Repulsion Energy =   300.4806349799 hartrees
 There are       32 alpha and       28 beta electrons

 Q-Chem warning in module /home/scratch/svnadmin/11668_zgan/qchem/forms1/BasisType.C, line 1419:

 Setting pure/cartesian flag to 2111 for general basis


 Requested basis set is non-standard
 There are 34 shells and 116 basis functions

 Total QAlloc Memory Limit   2000 MB
 Mega-Array Size        61 MB
 MEM_STATIC part        62 MB

                       Distance Matrix (Angstroms)
             Zr(  1)   O (  2)   O (  3)   O (  4)   O (  5)
   O (  2)  2.097214
   O (  3)  1.749471  3.069353
   O (  4)  1.749207  3.070982  2.880051
   O (  5)  1.746620  3.283851  2.843957  2.843983
   S (  6)  3.351674  1.581427  4.391697  4.400743  3.941955
 
 A cutoff of  1.0D-14 yielded    566 shell pairs
 There are      6801 function pairs (      7662 Cartesian)
 
 -------------------------------------------------------
 OpenMP Integral Computing Module                       
 Release: version 1.0, May 2013, Q-Chem Inc. Pittsburgh 
 -------------------------------------------------------
 Integral Job Info:
 Integral job number is                      11
 Integral operator is                         1
 short-range coefficients                     0
 long-range coefficients              100000000
 Omega coefficients                           0
 if combine SR and LR in K                    0
 Integral screening is                        0
 Integral computing path is                   2
 max size of driver memory is            800000
 size of driver memory is                593474
 size of scratch memory is             15166112
 max col of scratch BK array               1296
 max len of scratch array in speh3          155
 max len of scratch index in speh4           18
 max int batch size is                      520
 min int batch size is                       52
 fixed nKL is                                52
 max L of basis functions is                  2
 order of int derivative is                   0
 number of shells is                         34
 number of basis is                         123
 number of cartesian basis is               123
 number of contracted shell pairs           566
 number of primitive shell pairs           2654
 maxK2 (contraction) of shell pair           36
 max number of K2 of shell pair               1
 max number of CS2 of shell pair             63
 max number of PS2 of shell pair            360
 mem total for path MDJ                   27448
 -------------------------------------------------------
 Requested basis set is non-standard
 Compound shells will be simplified
 There are 50 shells and 116 basis functions
 A cutoff of  1.0D-14 yielded   1227 shell pairs
 There are      6753 function pairs (      7614 Cartesian)
 Smallest overlap matrix eigenvalue = 5.56E-04

 Scale SEOQF with 1.000000e-01/1.000000e-01/1.000000e-01

 Standard Electronic Orientation quadrupole field applied
 Nucleus-field energy     =     0.0000000052 hartrees
 Guess MOs from core Hamiltonian diagonalization
 An unrestricted hybrid HF-DFT SCF calculation will be
 performed using Geometric Direct Minimization
 Exchange:     0.2000 Hartree-Fock + 0.0800 Slater + 0.7200 B88
 Correlation:  0.1900 VWN1RPA + 0.8100 LYP
 Using Euler-Maclaurin-Lebedev (128,302) quadrature formula
 Dispersion:   Grimme D3
 SCF converges when RMS gradient is below 1.0E-08
 Maximum number of minimization steps = 200
 using 12 threads for integral computing 
 -------------------------------------------------------
 OpenMP BLAS3 based DFT computing Module                
 Release: version 1.0, May 2013, Q-Chem Inc. Pittsburgh 
 -------------------------------------------------------
 
   ------------------- Entering Geometric Direct Minimization ------------------
   GDM:         diagonal hessian shift is      0.000000000000000E+000
   GDM::PreWSS: input subspace size is                  1
   GDM::PreWSS: working subspace size set to            1
   GDM::PrEWSS: # of linearly dependent vectors =            0
   GDM::PrEWSS: Max dev from orthonormality =   0.000000000000000E+000
   GDM::BFGS:   lowest Hinv e-value     1.00000000000000     
   GDM::BFGS:   highest Hinv e-value    1.00000000000000     
   GDM::      : max scaling in EWCs is          1.41421356237309     
   GDM::      : max rotation in step is       -8.265128817381362E-002
   GDM::        grad.step =   -2.92672091313377     
   ------- Leaving GDM -- hopefully with a step in the right direction! --------
 
 ---------------------------------------
  Cycle       Energy        RMS Gradient
 ---------------------------------------
    1    -718.0825027560      1.66E+00  Gap = 0.00 eV  Descent step
 
   ------------------- Entering Geometric Direct Minimization ------------------
   GDM::trust : actual energy change is        -2.88095544228565     
   GDM::trust : predicted energy change was   -0.163350000000000     
   GDM::trust : updated trust radius is        0.330000000000000     
   GDM::search:  On step            1 .  The current bracket is:
       left   : x =  0.0000E+00, e =      -718.0825027560, g = -0.7943E+01
       current: x =  0.3685E+00, e =      -720.9634581983, g = -0.7643E+01
       right  : x =  0.1000E+04, e =      1000.0000000000, g =  0.1000E+04
       next   : x =  0.3685E+01
   GDM::      : max rotation in step is       -0.826512881738136     
   ------- Leaving GDM -- hopefully with a step in the right direction! --------
 
    2    -720.9634581983      1.79E+00  Gap = -157.83 eV  Line search: understep
 
   ------------------- Entering Geometric Direct Minimization ------------------
   GDM::trust : actual energy change is        -11.4213688522367     
   GDM::trust : predicted energy change was   -0.163350000000000     
   GDM::trust : updated trust radius is        0.330000000000000     
   GDM:         diagonal hessian shift is      0.000000000000000E+000
   GDM::PreWSS: input subspace size is                  2
   GDM::PreWSS: working subspace size set to            2
   GDM::PrEWSS: # of linearly dependent vectors =            0
   GDM::PrEWSS: Max dev from orthonormality =   7.702172233337023E-016
   GDM::BFGS:   lowest Hinv e-value    0.147172510235663     
   GDM::BFGS:   highest Hinv e-value    3.97129770308323     
   GDM::      : max scaling in EWCs is          2.82842712474619     
   GDM::      : max rotation in step is       -0.469020702163228     
   GDM::        grad.step =   -3.34667265060878     
   ------- Leaving GDM -- hopefully with a step in the right direction! --------
 
    3    -729.5038716083      5.10E+00  Gap = -157.83 eV  Descent step
 
   ------------------- Entering Geometric Direct Minimization ------------------
   GDM::trust : actual energy change is        -2.92796624884443     
   GDM::trust : predicted energy change was   -0.378642860185519     
   GDM::trust : updated trust radius is        0.330000000000000     
   GDM:         diagonal hessian shift is      0.000000000000000E+000
   GDM::PreWSS: input subspace size is                  3
   GDM::PreWSS: working subspace size set to            3
   GDM::PrEWSS: # of linearly dependent vectors =            0
   GDM::PrEWSS: Max dev from orthonormality =   7.747275043712420E-015
   GDM::BFGS:   lowest Hinv e-value    0.514353428674055     
   GDM::BFGS:   highest Hinv e-value    1.91672061426526     
   GDM::      : max scaling in EWCs is          2.82842712474619     
   GDM::      : max rotation in step is        0.113819563260629     
   GDM::        grad.step =   -1.70255525417579     
   ------- Leaving GDM -- hopefully with a step in the right direction! --------
 
    4    -732.4318378571      9.60E-01  Gap = -157.83 eV  Descent step
 
   ------------------- Entering Geometric Direct Minimization ------------------
   GDM::trust : actual energy change is        -1.64579389594712     
   GDM::trust : predicted energy change was   -0.169149841181160     
   GDM::trust : updated trust radius is        0.330000000000000     
   GDM:         diagonal hessian shift is      0.000000000000000E+000
   GDM::PreWSS: input subspace size is                  4
   GDM::PreWSS: working subspace size set to            4
   GDM::PrEWSS: # of linearly dependent vectors =            0
   GDM::PrEWSS: Max dev from orthonormality =   4.957492749646519E-014
   GDM::BFGS:   lowest Hinv e-value    0.306791631499261     
   GDM::BFGS:   highest Hinv e-value    3.34494398406593     
   GDM::      : max scaling in EWCs is          2.82842712474619     
   GDM::      : max rotation in step is        0.184021834841154     
   GDM::        grad.step =   -1.61316718932210     
   ------- Leaving GDM -- hopefully with a step in the right direction! --------
 
    5    -734.0776317530      9.64E-01  Gap = -157.83 eV  Descent step
 
   ------------------- Entering Geometric Direct Minimization ------------------
   GDM::trust : actual energy change is        -1.55029692059441     
   GDM::trust : predicted energy change was   -0.137554245861882     
   GDM::trust : updated trust radius is        0.330000000000000     
   GDM:         diagonal hessian shift is      0.000000000000000E+000
   GDM::PreWSS: input subspace size is                  5
   GDM::PreWSS: working subspace size set to            5
   GDM::PrEWSS: # of linearly dependent vectors =            0
   GDM::PrEWSS: Max dev from orthonormality =   8.599371215112228E-014
   GDM::BFGS:   lowest Hinv e-value    0.250539382502452     
   GDM::BFGS:   highest Hinv e-value    2.29690912376401     
   GDM::      : max scaling in EWCs is          2.82842712474619     
   GDM::      : max rotation in step is       -0.151590004646359     
   GDM::        grad.step =   -1.35736789963588     
   ------- Leaving GDM -- hopefully with a step in the right direction! --------
 
    6    -735.6279286736      9.93E-01  Gap = -157.83 eV  Descent step
 
   ------------------- Entering Geometric Direct Minimization ------------------
   GDM::trust : actual energy change is        -1.31445356594247     
   GDM::trust : predicted energy change was   -0.145748046230867     
   GDM::trust : updated trust radius is        0.330000000000000     
   GDM:         diagonal hessian shift is      0.000000000000000E+000
   GDM::PreWSS: input subspace size is                  6
   GDM::PreWSS: working subspace size set to            6
   GDM::PrEWSS: # of linearly dependent vectors =            0
   GDM::PrEWSS: Max dev from orthonormality =   6.331705992845826E-013
   GDM::BFGS:   lowest Hinv e-value    0.213632478372653     
   GDM::BFGS:   highest Hinv e-value    3.10485783289521     
   GDM::      : max scaling in EWCs is          2.82842712474619     
   GDM::      : max rotation in step is       -0.353225392478860     
   GDM::        grad.step =   -1.63462105318696     
   ------- Leaving GDM -- hopefully with a step in the right direction! --------
 
    7    -736.9423822396      1.87E+00  Gap = -157.83 eV  Descent step
 
   ------------------- Entering Geometric Direct Minimization ------------------
   GDM::trust : actual energy change is        -1.43101070527769     
   GDM::trust : predicted energy change was   -0.149104415666547     
   GDM::trust : updated trust radius is        0.330000000000000     
   GDM:         diagonal hessian shift is      0.000000000000000E+000
   GDM::PreWSS: input subspace size is                  7
   GDM::PreWSS: working subspace size set to            7
   GDM::PrEWSS: # of linearly dependent vectors =            0
   GDM::PrEWSS: Max dev from orthonormality =   3.234305184784958E-013
   GDM::BFGS:   lowest Hinv e-value    0.241769573948562     
   GDM::BFGS:   highest Hinv e-value    3.14634797702938     
   GDM::      : max scaling in EWCs is          2.82842712474619     
   GDM::      : max rotation in step is       -0.124125836243419     
   GDM::        grad.step =  -0.999018421013580     
   ------- Leaving GDM -- hopefully with a step in the right direction! --------
 
    8    -738.3733929449      6.32E-01  Gap = -157.83 eV  Descent step
 
   ------------------- Entering Geometric Direct Minimization ------------------
   GDM::trust : actual energy change is       -0.941599592724970     
   GDM::trust : predicted energy change was   -0.158074836416682     
   GDM::trust : updated trust radius is        0.330000000000000     
   GDM:         diagonal hessian shift is      0.000000000000000E+000
   GDM::PreWSS: input subspace size is                  8
   GDM::PreWSS: working subspace size set to            8
   GDM::PrEWSS: # of linearly dependent vectors =            0
   GDM::PrEWSS: Max dev from orthonormality =   1.622094819575537E-012
   GDM::BFGS:   lowest Hinv e-value    0.229193457673503     
   GDM::BFGS:   highest Hinv e-value    3.40450149671698     
   GDM::      : max scaling in EWCs is          2.82842712474619     
   GDM::      : max rotation in step is        0.371211994215245     
   GDM::        grad.step =   -1.00602864161298     
   ------- Leaving GDM -- hopefully with a step in the right direction! --------
 
    9    -739.3149925376      1.21E+00  Gap = -157.83 eV  Descent step
 
   ------------------- Entering Geometric Direct Minimization ------------------
   GDM::trust : actual energy change is       -0.873383011870033     
   GDM::trust : predicted energy change was   -0.145824564804706     
   GDM::trust : updated trust radius is        0.330000000000000     
   GDM:         diagonal hessian shift is      0.000000000000000E+000
   GDM::PreWSS: input subspace size is                  9
   GDM::PreWSS: working subspace size set to            9
   GDM::PrEWSS: # of linearly dependent vectors =            0
   GDM::PrEWSS: Max dev from orthonormality =   1.241937108709124E-012
   GDM::BFGS:   lowest Hinv e-value    0.218504743729061     
   GDM::BFGS:   highest Hinv e-value    3.78959651929624     
   GDM::      : max scaling in EWCs is          2.82842712474619     
   GDM::      : max rotation in step is        0.104898059136100     
   GDM::        grad.step =  -0.708925997586117     
   ------- Leaving GDM -- hopefully with a step in the right direction! --------
 
   10    -740.1883755495      3.84E-01  Gap = -157.83 eV  Descent step
 
   ------------------- Entering Geometric Direct Minimization ------------------
   GDM::trust : actual energy change is       -0.668654672220100     
   GDM::trust : predicted energy change was   -0.154301734802984     
   GDM::trust : updated trust radius is        0.330000000000000     
   GDM:         diagonal hessian shift is      0.000000000000000E+000
   GDM::PreWSS: input subspace size is                 10
   GDM::PreWSS: working subspace size set to           10
   GDM::PrEWSS: # of linearly dependent vectors =            0
   GDM::PrEWSS: Max dev from orthonormality =   5.935807401158399E-013
   GDM::BFGS:   lowest Hinv e-value    0.214761251073628     
   GDM::BFGS:   highest Hinv e-value    3.95744780642820     
   GDM::      : max scaling in EWCs is          2.82842712474619     
   GDM::      : max rotation in step is       -0.136302424794345     
   GDM::        grad.step =  -0.642217060358395     
   ------- Leaving GDM -- hopefully with a step in the right direction! --------
 
   11    -740.8570302217      3.93E-01  Gap = -157.83 eV  Descent step
 
   ------------------- Entering Geometric Direct Minimization ------------------
   GDM::trust : actual energy change is       -0.600810120692245     
   GDM::trust : predicted energy change was   -0.134157904990414     
   GDM::trust : updated trust radius is        0.330000000000000     
   GDM:         diagonal hessian shift is      0.000000000000000E+000
   GDM::PreWSS: input subspace size is                 11
   GDM::PreWSS: working subspace size set to           11
   GDM::PrEWSS: # of linearly dependent vectors =            0
   GDM::PrEWSS: Max dev from orthonormality =   6.327126322869248E-013
   GDM::BFGS:   lowest Hinv e-value    0.185141055013808     
   GDM::BFGS:   highest Hinv e-value    4.19231769739369     
   GDM::      : max scaling in EWCs is          2.82842712474619     
   GDM::      : max rotation in step is       -0.193497544253572     
   GDM::        grad.step =  -0.594665219801299     
   ------- Leaving GDM -- hopefully with a step in the right direction! --------
 
   12    -741.4578403424      5.50E-01  Gap = -157.83 eV  Descent step
 
   ------------------- Entering Geometric Direct Minimization ------------------
   GDM::trust : actual energy change is       -0.547204168493295     
   GDM::trust : predicted energy change was   -0.137252022012627     
   GDM::trust : updated trust radius is        0.330000000000000     
   GDM:         diagonal hessian shift is      0.000000000000000E+000
   GDM::PreWSS: input subspace size is                 12
   GDM::PreWSS: working subspace size set to           12
   GDM::PrEWSS: # of linearly dependent vectors =            0
   GDM::PrEWSS: Max dev from orthonormality =   1.602501117914379E-012
   GDM::BFGS:   lowest Hinv e-value    0.147898112507641     
   GDM::BFGS:   highest Hinv e-value    4.46860140599611     
   GDM::      : max scaling in EWCs is          2.82842712474619     
   GDM::      : max rotation in step is       -0.446127715402396     
   GDM::        grad.step =  -0.555376895383368     
   ------- Leaving GDM -- hopefully with a step in the right direction! --------
 
   13    -742.0050445109      8.04E-01  Gap = -157.83 eV  Descent step
 
   ------------------- Entering Geometric Direct Minimization ------------------
   GDM::trust : actual energy change is       -0.491398798767932     
   GDM::trust : predicted energy change was   -0.148324427702191     
   GDM::trust : updated trust radius is        0.330000000000000     
   GDM:         diagonal hessian shift is      0.000000000000000E+000
   GDM::PreWSS: input subspace size is                 13
   GDM::PreWSS: working subspace size set to           13
   GDM::PrEWSS: # of linearly dependent vectors =            0
   GDM::PrEWSS: Max dev from orthonormality =   1.114948411373717E-012
   GDM::BFGS:   lowest Hinv e-value    0.177787810074990     
   GDM::BFGS:   highest Hinv e-value    4.87842970602389     
   GDM::      : max scaling in EWCs is          2.82842712474619     
   GDM::      : max rotation in step is        0.309751494256015     
   GDM::        grad.step =  -0.485761612834487     
   ------- Leaving GDM -- hopefully with a step in the right direction! --------
 
   14    -742.4964433096      7.29E-01  Gap = -157.83 eV  Descent step
 
   ------------------- Entering Geometric Direct Minimization ------------------
   GDM::trust : actual energy change is       -0.439275588505780     
   GDM::trust : predicted energy change was   -0.147833357408531     
   GDM::trust : updated trust radius is        0.330000000000000     
   GDM:         diagonal hessian shift is      0.000000000000000E+000
   GDM::PreWSS: input subspace size is                 14
   GDM::PreWSS: working subspace size set to           14
   GDM::PrEWSS: # of linearly dependent vectors =            0
   GDM::PrEWSS: Max dev from orthonormality =   1.200789467858954E-012
   GDM::BFGS:   lowest Hinv e-value    0.181204539502484     
   GDM::BFGS:   highest Hinv e-value    4.97110265897948     
   GDM::      : max scaling in EWCs is          2.82842712474619     
   GDM::      : max rotation in step is       -0.269610109900643     
   GDM::        grad.step =  -0.452481561501535     
   ------- Leaving GDM -- hopefully with a step in the right direction! --------
 
   15    -742.9357188981      6.42E-01  Gap = -157.83 eV  Descent step
 
   ------------------- Entering Geometric Direct Minimization ------------------
   GDM::trust : actual energy change is       -0.420964020328142     
   GDM::trust : predicted energy change was   -0.143809119989034     
   GDM::trust : updated trust radius is        0.330000000000000     
   GDM:         diagonal hessian shift is      0.000000000000000E+000
   GDM::PreWSS: input subspace size is                 15
   GDM::PreWSS: working subspace size set to           15
   GDM::PrEWSS: # of linearly dependent vectors =            0
   GDM::PrEWSS: Max dev from orthonormality =   8.790190797469677E-013
   GDM::BFGS:   lowest Hinv e-value    0.157299410136828     
   GDM::BFGS:   highest Hinv e-value    6.45513679345341     
   GDM::      : max scaling in EWCs is          2.82842712474619     
   GDM::      : max rotation in step is       -0.291488412675612     
   GDM::        grad.step =  -0.397636633890115     
   ------- Leaving GDM -- hopefully with a step in the right direction! --------
 
   16    -743.3566829185      6.57E-01  Gap = -157.83 eV  Descent step
 
   ------------------- Entering Geometric Direct Minimization ------------------
   GDM::trust : actual energy change is       -0.339651419533880     
   GDM::trust : predicted energy change was   -0.129565091124349     
   GDM::trust : updated trust radius is        0.330000000000000     
   GDM:         diagonal hessian shift is      0.000000000000000E+000
   GDM::PreWSS: input subspace size is                 16
   GDM::PreWSS: working subspace size set to           16
   GDM::PrEWSS: # of linearly dependent vectors =            0
   GDM::PrEWSS: Max dev from orthonormality =   1.585759301647727E-012
   GDM::BFGS:   lowest Hinv e-value    0.142325203533595     
   GDM::BFGS:   highest Hinv e-value    5.29138940595124     
   GDM::      : max scaling in EWCs is          2.82842712474619     
   GDM::      : max rotation in step is        0.230405537731231     
   GDM::        grad.step =  -0.336907012574851     
   ------- Leaving GDM -- hopefully with a step in the right direction! --------
 
   17    -743.6963343380      2.53E-01  Gap = -157.83 eV  Descent step
 
   ------------------- Entering Geometric Direct Minimization ------------------
   GDM::trust : actual energy change is       -0.283068199742161     
   GDM::trust : predicted energy change was   -0.192649029661323     
   GDM::trust : updated trust radius is        0.330000000000000     
   GDM:         diagonal hessian shift is      0.000000000000000E+000
   GDM::PreWSS: input subspace size is                 17
   GDM::PreWSS: working subspace size set to           17
   GDM::PrEWSS: # of linearly dependent vectors =            0
   GDM::PrEWSS: Max dev from orthonormality =   1.103565155924358E-012
   GDM::BFGS:   lowest Hinv e-value    0.106390191543127     
   GDM::BFGS:   highest Hinv e-value    6.23043951623275     
   GDM::      : max scaling in EWCs is          2.82842712474619     
   GDM::      : max rotation in step is       -0.384342965935350     
   GDM::        grad.step =  -0.346961286643884     
   ------- Leaving GDM -- hopefully with a step in the right direction! --------
 
   18    -743.9794025377      4.33E-01  Gap = -157.83 eV  Descent step
 
   ------------------- Entering Geometric Direct Minimization ------------------
   GDM::trust : actual energy change is       -0.147271008154348     
   GDM::trust : predicted energy change was   -0.265175103181622     
   GDM::trust : updated trust radius is        0.330000000000000     
   GDM:         diagonal hessian shift is      0.000000000000000E+000
   GDM::PreWSS: input subspace size is                 18
   GDM::PreWSS: working subspace size set to           18
   GDM::PrEWSS: # of linearly dependent vectors =            0
   GDM::PrEWSS: Max dev from orthonormality =   2.236058560534104E-012
   GDM::BFGS:   lowest Hinv e-value    0.102021467103469     
   GDM::BFGS:   highest Hinv e-value    6.13240247109099     
   GDM::      : max scaling in EWCs is          2.82842712474619     
   GDM::      : max rotation in step is       -0.453814894328079     
   GDM::        grad.step =  -0.513874858569960     
   ------- Leaving GDM -- hopefully with a step in the right direction! --------
 
   19    -744.1266735459      8.02E-01  Gap = -157.83 eV  Descent step
 
   ------------------- Entering Geometric Direct Minimization ------------------
   GDM::trust : actual energy change is       -9.742839576290407E-002
   GDM::trust : predicted energy change was   -0.534216848281060     
   GDM::trust : updated trust radius is        0.330000000000000     
   GDM:         diagonal hessian shift is      0.000000000000000E+000
   GDM::PreWSS: input subspace size is                 19
   GDM::PreWSS: working subspace size set to           18
   GDM::PrEWSS: # of linearly dependent vectors =            0
   GDM::PrEWSS: Max dev from orthonormality =   2.583988578663821E-012
   GDM::BFGS:   lowest Hinv e-value    0.132728270921626     
   GDM::BFGS:   highest Hinv e-value    5.51772817747731     
   GDM::      : max scaling in EWCs is          2.82842712474619     
   GDM::      : max rotation in step is        0.240839785269969     
   GDM::        grad.step =  -0.467946724583861     
   ------- Leaving GDM -- hopefully with a step in the right direction! --------
 
   20    -744.2241019417      4.99E-01  Gap = -157.83 eV  Descent step
 
   ------------------- Entering Geometric Direct Minimization ------------------
   GDM::trust : actual energy change is       -0.146573821258357     
   GDM::trust : predicted energy change was   -0.414626506220161     
   GDM::trust : updated trust radius is        0.330000000000000     
   GDM:         diagonal hessian shift is      0.000000000000000E+000
   GDM::PreWSS: input subspace size is                 19
   GDM::PreWSS: working subspace size set to           18
   GDM::PrEWSS: # of linearly dependent vectors =            0
   GDM::PrEWSS: Max dev from orthonormality =   1.327840615239495E-012
   GDM::BFGS:   lowest Hinv e-value    8.835558382998589E-002
   GDM::BFGS:   highest Hinv e-value    5.88807067247134     
   GDM::      : max scaling in EWCs is          2.82842712474619     
   GDM::      : max rotation in step is       -0.507021976769559     
   GDM::        grad.step =  -0.416060715696654     
   ------- Leaving GDM -- hopefully with a step in the right direction! --------
 
   21    -744.3706757629      6.85E-01  Gap = -157.83 eV  Descent step
 
   ------------------- Entering Geometric Direct Minimization ------------------
   GDM::trust : actual energy change is       -3.548046550156414E-002
   GDM::trust : predicted energy change was   -0.496130805545386     
   GDM::trust : updated trust radius is        0.330000000000000     
   GDM:         diagonal hessian shift is      0.000000000000000E+000
   GDM::PreWSS: input subspace size is                 19
   GDM::PreWSS: working subspace size set to           18
   GDM::PrEWSS: # of linearly dependent vectors =            0
   GDM::PrEWSS: Max dev from orthonormality =   6.416360498473495E-013
   GDM::BFGS:   lowest Hinv e-value    0.123952860224695     
   GDM::BFGS:   highest Hinv e-value    5.99349661598055     
   GDM::      : max scaling in EWCs is          2.82842712474619     
   GDM::      : max rotation in step is        0.237231905940247     
   GDM::        grad.step =  -0.453580362350384     
   ------- Leaving GDM -- hopefully with a step in the right direction! --------
 
   22    -744.4061562284      4.22E-01  Gap = -157.83 eV  Descent step
 
   ------------------- Entering Geometric Direct Minimization ------------------
   GDM::trust : actual energy change is       -0.178150322747911     
   GDM::trust : predicted energy change was   -0.452679157964103     
   GDM::trust : updated trust radius is        0.330000000000000     
   GDM:         diagonal hessian shift is      0.000000000000000E+000
   GDM::PreWSS: input subspace size is                 19
   GDM::PreWSS: working subspace size set to           18
   GDM::PrEWSS: # of linearly dependent vectors =            0
   GDM::PrEWSS: Max dev from orthonormality =   6.054393097976174E-013
   GDM::BFGS:   lowest Hinv e-value    0.116003004483219     
   GDM::BFGS:   highest Hinv e-value    5.95209968609466     
   GDM::      : max scaling in EWCs is          2.82842712474619     
   GDM::      : max rotation in step is       -0.528802016084583     
   GDM::        grad.step =  -0.336335203577850     
   ------- Leaving GDM -- hopefully with a step in the right direction! --------
 
   23    -744.5843065512      5.77E-01  Gap = -157.83 eV  Descent step
 
   ------------------- Entering Geometric Direct Minimization ------------------
   GDM::trust : actual energy change is       -0.168801507648368     
   GDM::trust : predicted energy change was   -0.285671141426193     
   GDM::trust : updated trust radius is        0.330000000000000     
   GDM:         diagonal hessian shift is      0.000000000000000E+000
   GDM::PreWSS: input subspace size is                 19
   GDM::PreWSS: working subspace size set to           18
   GDM::PrEWSS: # of linearly dependent vectors =            0
   GDM::PrEWSS: Max dev from orthonormality =   7.151883252287661E-013
   GDM::BFGS:   lowest Hinv e-value    9.920782027162146E-002
   GDM::BFGS:   highest Hinv e-value    5.94540264372536     
   GDM::      : max scaling in EWCs is          2.82842712474619     
   GDM::      : max rotation in step is       -0.334194426755661     
   GDM::        grad.step =  -0.322619620061313     
   ------- Leaving GDM -- hopefully with a step in the right direction! --------
 
   24    -744.7531080588      3.50E-01  Gap = -157.83 eV  Descent step
 
   ------------------- Entering Geometric Direct Minimization ------------------
   GDM::trust : actual energy change is       -2.698079655453967E-002
   GDM::trust : predicted energy change was   -0.436962104348821     
   GDM::trust : updated trust radius is        0.330000000000000     
   GDM:         diagonal hessian shift is      0.000000000000000E+000
   GDM::PreWSS: input subspace size is                 19
   GDM::PreWSS: working subspace size set to           18
   GDM::PrEWSS: # of linearly dependent vectors =            0
   GDM::PrEWSS: Max dev from orthonormality =   2.142730437526552E-013
   GDM::BFGS:   lowest Hinv e-value    0.100453105193348     
   GDM::BFGS:   highest Hinv e-value    6.78587649680857     
   GDM::      : max scaling in EWCs is          2.82842712474619     
   GDM::      : max rotation in step is       -0.609761113729380     
   GDM::        grad.step =  -0.569957008322692     
   ------- Leaving GDM -- hopefully with a step in the right direction! --------
 
   25    -744.7800888554      1.13E+00  Gap = -157.83 eV  Descent step
 
   ------------------- Entering Geometric Direct Minimization ------------------
   GDM::trust : actual energy change is       -0.160915401424290     
   GDM::trust : predicted energy change was   -0.571474805751862     
   GDM::trust : updated trust radius is        0.330000000000000     
   GDM:         diagonal hessian shift is      0.000000000000000E+000
   GDM::PreWSS: input subspace size is                 19
   GDM::PreWSS: working subspace size set to           18
   GDM::PrEWSS: # of linearly dependent vectors =            0
   GDM::PrEWSS: Max dev from orthonormality =   2.358755551989944E-013
   GDM::BFGS:   lowest Hinv e-value    9.506680275543132E-002
   GDM::BFGS:   highest Hinv e-value    5.79134719031973     
   GDM::      : max scaling in EWCs is          2.82842712474619     
   GDM::      : max rotation in step is        0.248776618871575     
   GDM::        grad.step =  -0.378524271512806     
   ------- Leaving GDM -- hopefully with a step in the right direction! --------
 
   26    -744.9410042568      3.74E-01  Gap = -157.83 eV  Descent step
 
   ------------------- Entering Geometric Direct Minimization ------------------
   GDM::trust : actual energy change is       -5.318660277271192E-002
   GDM::trust : predicted energy change was   -0.453933469188999     
   GDM::trust : updated trust radius is        0.330000000000000     
   GDM:         diagonal hessian shift is      0.000000000000000E+000
   GDM::PreWSS: input subspace size is                 19
   GDM::PreWSS: working subspace size set to           18
   GDM::PrEWSS: # of linearly dependent vectors =            0
   GDM::PrEWSS: Max dev from orthonormality =   3.226585665316861E-013
   GDM::BFGS:   lowest Hinv e-value    0.134537134201129     
   GDM::BFGS:   highest Hinv e-value    6.70592164120163     
   GDM::      : max scaling in EWCs is          2.82842712474619     
   GDM::      : max rotation in step is       -0.319086955874262     
   GDM::        grad.step =  -0.438475458266764     
   ------- Leaving GDM -- hopefully with a step in the right direction! --------
 
   27    -744.9941908596      5.05E-01  Gap = -148822.66 eV  Descent step
 
   ------------------- Entering Geometric Direct Minimization ------------------
   GDM::trust : actual energy change is       -0.121130816238747     
   GDM::trust : predicted energy change was   -0.422888776588301     
   GDM::trust : updated trust radius is        0.330000000000000     
   GDM:         diagonal hessian shift is      0.000000000000000E+000
   GDM::PreWSS: input subspace size is                 19
   GDM::PreWSS: working subspace size set to           18
   GDM::PrEWSS: # of linearly dependent vectors =            0
   GDM::PrEWSS: Max dev from orthonormality =   1.396105453466134E-013
   GDM::BFGS:   lowest Hinv e-value    0.101440756955811     
   GDM::BFGS:   highest Hinv e-value    5.86530744487192     
   GDM::      : max scaling in EWCs is          2.82842712474619     
   GDM::      : max rotation in step is       -0.491258974185516     
   GDM::        grad.step =  -0.340585272701552     
   ------- Leaving GDM -- hopefully with a step in the right direction! --------
 
   28    -745.1153216758      5.43E-01  Gap = -157.83 eV  Descent step
 
   ------------------- Entering Geometric Direct Minimization ------------------
   GDM::trust : actual energy change is       -1.173214286609436E-002
   GDM::trust : predicted energy change was   -0.420818350214359     
   GDM::trust : updated trust radius is        0.330000000000000     
   GDM:         diagonal hessian shift is      0.000000000000000E+000
   GDM::PreWSS: input subspace size is                 19
   GDM::PreWSS: working subspace size set to           18
   GDM::PrEWSS: # of linearly dependent vectors =            0
   GDM::PrEWSS: Max dev from orthonormality =   4.955064136780152E-014
   GDM::BFGS:   lowest Hinv e-value    0.135395123612581     
   GDM::BFGS:   highest Hinv e-value    7.03825851057854     
   GDM::      : max scaling in EWCs is          2.82842712474619     
   GDM::      : max rotation in step is        0.169540816751199     
   GDM::        grad.step =  -0.416282673479710     
   ------- Leaving GDM -- hopefully with a step in the right direction! --------
 
   29    -745.1270538187      3.14E-01  Gap = -157.83 eV  Descent step
 
   ------------------- Entering Geometric Direct Minimization ------------------
   GDM::trust : actual energy change is       -9.830034527385578E-002
   GDM::trust : predicted energy change was   -0.436481725097700     
   GDM::trust : updated trust radius is        0.330000000000000     
   GDM:         diagonal hessian shift is      0.000000000000000E+000
   GDM::PreWSS: input subspace size is                 19
   GDM::PreWSS: working subspace size set to           18
   GDM::PrEWSS: # of linearly dependent vectors =            0
   GDM::PrEWSS: Max dev from orthonormality =   5.172945405362839E-014
   GDM::BFGS:   lowest Hinv e-value    9.753476393349557E-002
   GDM::BFGS:   highest Hinv e-value    6.16672057983145     
   GDM::      : max scaling in EWCs is          2.82842712474619     
   GDM::      : max rotation in step is        0.369283805676499     
   GDM::        grad.step =  -0.293015510622642     
   ------- Leaving GDM -- hopefully with a step in the right direction! --------
 
   30    -745.2253541639      3.51E-01  Gap = -157.83 eV  Descent step
 
   ------------------- Entering Geometric Direct Minimization ------------------
   GDM::trust : actual energy change is        0.116720577259116     
   GDM::trust : predicted energy change was   -0.522287115571769     
   GDM::trust : updated trust radius is        0.108900000000000     
   GDM::search:  On step            1 .  The current bracket is:
       left   : x =  0.0000E+00, e =      -745.2253541639, g = -0.4523E+00
       current: x =  0.6478E+00, e =      -745.1086335867, g =  0.8436E+00
       right  : x =  0.1000E+04, e =      1000.0000000000, g =  0.1000E+04
       next   : x =  0.2316E+00
   GDM::      : max rotation in step is        0.132043388519146     
   ------- Leaving GDM -- hopefully with a step in the right direction! --------
 
   31    -745.1086335867      3.06E-01  Gap = -157.83 eV  Line search: overstep
 
   ------------------- Entering Geometric Direct Minimization ------------------
   GDM::trust : actual energy change is       -5.714025961708558E-002
   GDM::trust : predicted energy change was   -0.522287115571769     
   GDM::trust : updated trust radius is        0.108900000000000     
   GDM:         diagonal hessian shift is      0.000000000000000E+000
   GDM::PreWSS: input subspace size is                 19
   GDM::PreWSS: working subspace size set to           18
   GDM::PrEWSS: # of linearly dependent vectors =            0
   GDM::PrEWSS: Max dev from orthonormality =   7.938094626069869E-014
   GDM::BFGS:   lowest Hinv e-value    0.133905429680253     
   GDM::BFGS:   highest Hinv e-value    7.50862609588185     
   GDM::      : max scaling in EWCs is          2.82842712474619     
   GDM::      : max rotation in step is        0.122863954299784     
   GDM::        grad.step =  -4.458572404446009E-002
   ------- Leaving GDM -- hopefully with a step in the right direction! --------
 
   32    -745.2824944236      2.63E-01  Gap = -157.83 eV  Descent step
 
   ------------------- Entering Geometric Direct Minimization ------------------
   GDM::trust : actual energy change is       -4.081115677831804E-002
   GDM::trust : predicted energy change was   -1.882581754023663E-002
   GDM::trust : updated trust radius is        0.330000000000000     
   GDM:         diagonal hessian shift is      0.000000000000000E+000
   GDM::PreWSS: input subspace size is                 19
   GDM::PreWSS: working subspace size set to           18
   GDM::PrEWSS: # of linearly dependent vectors =            0
   GDM::PrEWSS: Max dev from orthonormality =   1.226380108576564E-013
   GDM::BFGS:   lowest Hinv e-value    9.950297819781791E-002
   GDM::BFGS:   highest Hinv e-value    7.59828385232456     
   GDM::      : max scaling in EWCs is          2.68295740846004     
   GDM::      : max rotation in step is        0.617727186846801     
   GDM::        grad.step =  -0.151185659543942     
   ------- Leaving GDM -- hopefully with a step in the right direction! --------
 
   33    -745.3233055803      3.69E-01  Gap = -157.83 eV  Descent step
 
   ------------------- Entering Geometric Direct Minimization ------------------
   GDM::trust : actual energy change is       -0.135986154858529     
   GDM::trust : predicted energy change was   -0.162286063171938     
   GDM::trust : updated trust radius is        0.330000000000000     
   GDM:         diagonal hessian shift is      0.000000000000000E+000
   GDM::PreWSS: input subspace size is                 19
   GDM::PreWSS: working subspace size set to           18
   GDM::PrEWSS: # of linearly dependent vectors =            0
   GDM::PrEWSS: Max dev from orthonormality =   1.045413755562663E-013
   GDM::BFGS:   lowest Hinv e-value    0.232561674844605     
   GDM::BFGS:   highest Hinv e-value    8.83239678741913     
   GDM::      : max scaling in EWCs is          2.82842712474619     
   GDM::      : max rotation in step is        0.493614807442108     
   GDM::        grad.step =  -0.119631356115381     
   ------- Leaving GDM -- hopefully with a step in the right direction! --------
 
   34    -745.4592917352      2.17E-01  Gap = -157.83 eV  Descent step
 
   ------------------- Entering Geometric Direct Minimization ------------------
   GDM::trust : actual energy change is       -4.835665493601482E-002
   GDM::trust : predicted energy change was   -0.156995224402333     
   GDM::trust : updated trust radius is        0.330000000000000     
   GDM:         diagonal hessian shift is      0.000000000000000E+000
   GDM::PreWSS: input subspace size is                 19
   GDM::PreWSS: working subspace size set to           18
   GDM::PrEWSS: # of linearly dependent vectors =            0
   GDM::PrEWSS: Max dev from orthonormality =   8.253814298697648E-014
   GDM::BFGS:   lowest Hinv e-value    0.262239884753635     
   GDM::BFGS:   highest Hinv e-value    7.26644130815701     
   GDM::      : max scaling in EWCs is          2.60453565175763     
   GDM::      : max rotation in step is       -0.119981416563192     
   GDM::        grad.step =  -6.295628426873107E-002
   ------- Leaving GDM -- hopefully with a step in the right direction! --------
 
   35    -745.5076483901      8.58E-02  Gap = -157.83 eV  Normal BFGS step
 
   ------------------- Entering Geometric Direct Minimization ------------------
   GDM::trust : actual energy change is        8.587302636442473E-003
   GDM::trust : predicted energy change was   -9.443442640309663E-002
   GDM::trust : updated trust radius is        0.108900000000000     
   GDM::search:  On step            1 .  The current bracket is:
       left   : x =  0.0000E+00, e =      -745.5076483901, g = -0.1737E+00
       current: x =  0.3625E+00, e =      -745.4990610875, g =  0.1987E+00
       right  : x =  0.1000E+04, e =      1000.0000000000, g =  0.1000E+04
       next   : x =  0.1595E+00
   GDM::      : max rotation in step is       -5.279008570068722E-002
   ------- Leaving GDM -- hopefully with a step in the right direction! --------
 
   36    -745.4990610875      1.05E-01  Gap = -157.83 eV  Line search: overstep
 
   ------------------- Entering Geometric Direct Minimization ------------------
   GDM::trust : actual energy change is       -1.301407831260804E-002
   GDM::trust : predicted energy change was   -9.443442640309663E-002
   GDM::trust : updated trust radius is        0.108900000000000     
   GDM:         diagonal hessian shift is      0.000000000000000E+000
   GDM::PreWSS: input subspace size is                 19
   GDM::PreWSS: working subspace size set to           18
   GDM::PrEWSS: # of linearly dependent vectors =            0
   GDM::PrEWSS: Max dev from orthonormality =   1.084375644833102E-013
   GDM::BFGS:   lowest Hinv e-value    0.215439653070722     
   GDM::BFGS:   highest Hinv e-value    5.63596208063253     
   GDM::      : max scaling in EWCs is          2.71275268401308     
   GDM::      : max rotation in step is       -4.692582221482256E-002
   GDM::        grad.step =  -1.327326055629809E-002
   ------- Leaving GDM -- hopefully with a step in the right direction! --------
 
   37    -745.5206624684      2.51E-02  Gap = -157.83 eV  Descent step
 
   ------------------- Entering Geometric Direct Minimization ------------------
   GDM::trust : actual energy change is       -3.121118293620384E-003
   GDM::trust : predicted energy change was   -1.785722678524228E-002
   GDM::trust : updated trust radius is        0.330000000000000     
   GDM:         diagonal hessian shift is      0.000000000000000E+000
   GDM::PreWSS: input subspace size is                 19
   GDM::PreWSS: working subspace size set to           18
   GDM::PrEWSS: # of linearly dependent vectors =            0
   GDM::PrEWSS: Max dev from orthonormality =   7.237387772418558E-013
   GDM::BFGS:   lowest Hinv e-value    0.231155984688448     
   GDM::BFGS:   highest Hinv e-value    2.74969188356097     
   GDM::      : max scaling in EWCs is          2.82842712474619     
   GDM::      : max rotation in step is        3.829388748648425E-002
   GDM::        grad.step =  -8.708108598730221E-003
   ------- Leaving GDM -- hopefully with a step in the right direction! --------
 
   38    -745.5237835867      3.15E-02  Gap = -157.83 eV  Normal BFGS step
 
   ------------------- Entering Geometric Direct Minimization ------------------
   GDM::trust : actual energy change is       -1.404484682439033E-003
   GDM::trust : predicted energy change was   -1.306216289809533E-002
   GDM::trust : updated trust radius is        0.330000000000000     
   GDM:         diagonal hessian shift is      0.000000000000000E+000
   GDM::PreWSS: input subspace size is                 19
   GDM::PreWSS: working subspace size set to           18
   GDM::PrEWSS: # of linearly dependent vectors =            0
   GDM::PrEWSS: Max dev from orthonormality =   3.437805595751797E-013
   GDM::BFGS:   lowest Hinv e-value    0.158906080880314     
   GDM::BFGS:   highest Hinv e-value    2.70744548221449     
   GDM::      : max scaling in EWCs is          2.82842712474619     
   GDM::      : max rotation in step is        5.386958106917260E-002
   GDM::        grad.step =  -6.519975403993566E-003
   ------- Leaving GDM -- hopefully with a step in the right direction! --------
 
   39    -745.5251880714      6.14E-02  Gap = -157.83 eV  Normal BFGS step
 
   ------------------- Entering Geometric Direct Minimization ------------------
   GDM::trust : actual energy change is       -2.229605941465707E-003
   GDM::trust : predicted energy change was   -9.779963105990348E-003
   GDM::trust : updated trust radius is        0.330000000000000     
   GDM:         diagonal hessian shift is      0.000000000000000E+000
   GDM::PreWSS: input subspace size is                 19
   GDM::PreWSS: working subspace size set to           18
   GDM::PrEWSS: # of linearly dependent vectors =            0
   GDM::PrEWSS: Max dev from orthonormality =   9.132746642270817E-013
   GDM::BFGS:   lowest Hinv e-value    0.173526533804519     
   GDM::BFGS:   highest Hinv e-value    2.71687637998616     
   GDM::      : max scaling in EWCs is          2.82842712474619     
   GDM::      : max rotation in step is       -2.488057847830159E-002
   GDM::        grad.step =  -2.339101368538758E-003
   ------- Leaving GDM -- hopefully with a step in the right direction! --------
 
   40    -745.5274176774      1.77E-02  Gap = -157.83 eV  Normal BFGS step
 
   ------------------- Entering Geometric Direct Minimization ------------------
   GDM::trust : actual energy change is       -4.287238778033498E-004
   GDM::trust : predicted energy change was   -3.508652052808137E-003
   GDM::trust : updated trust radius is        0.330000000000000     
   GDM:         diagonal hessian shift is      0.000000000000000E+000
   GDM::PreWSS: input subspace size is                 19
   GDM::PreWSS: working subspace size set to           18
   GDM::PrEWSS: # of linearly dependent vectors =            0
   GDM::PrEWSS: Max dev from orthonormality =   9.025141745055976E-013
   GDM::BFGS:   lowest Hinv e-value    0.176680104806700     
   GDM::BFGS:   highest Hinv e-value    2.63579324310266     
   GDM::      : max scaling in EWCs is          2.82842712474619     
   GDM::      : max rotation in step is        2.861697112165480E-002
   GDM::        grad.step =  -1.726058031343014E-003
   ------- Leaving GDM -- hopefully with a step in the right direction! --------
 
   41    -745.5278464012      1.84E-02  Gap = -157.83 eV  Normal BFGS step
 
   ------------------- Entering Geometric Direct Minimization ------------------
   GDM::trust : actual energy change is       -4.730025784738245E-004
   GDM::trust : predicted energy change was   -2.589087047014521E-003
   GDM::trust : updated trust radius is        0.330000000000000     
   GDM:         diagonal hessian shift is      0.000000000000000E+000
   GDM::PreWSS: input subspace size is                 19
   GDM::PreWSS: working subspace size set to           18
   GDM::PrEWSS: # of linearly dependent vectors =            0
   GDM::PrEWSS: Max dev from orthonormality =   7.686629110992271E-013
   GDM::BFGS:   lowest Hinv e-value    0.174188456425407     
   GDM::BFGS:   highest Hinv e-value    3.89715858019961     
   GDM::      : max scaling in EWCs is          2.82842712474619     
   GDM::      : max rotation in step is       -2.989471847496578E-002
   GDM::        grad.step =  -1.100392235718820E-003
   ------- Leaving GDM -- hopefully with a step in the right direction! --------
 
   42    -745.5283194038      1.24E-02  Gap = -157.83 eV  Normal BFGS step
 
   ------------------- Entering Geometric Direct Minimization ------------------
   GDM::trust : actual energy change is       -2.976156158638332E-004
   GDM::trust : predicted energy change was   -1.650588353578230E-003
   GDM::trust : updated trust radius is        0.330000000000000     
   GDM:         diagonal hessian shift is      0.000000000000000E+000
   GDM::PreWSS: input subspace size is                 19
   GDM::PreWSS: working subspace size set to           18
   GDM::PrEWSS: # of linearly dependent vectors =            0
   GDM::PrEWSS: Max dev from orthonormality =   2.387593595054582E-012
   GDM::BFGS:   lowest Hinv e-value    0.172884247996439     
   GDM::BFGS:   highest Hinv e-value    2.60666787832775     
   GDM::      : max scaling in EWCs is          2.82842712474619     
   GDM::      : max rotation in step is       -1.700168819435068E-002
   GDM::        grad.step =  -5.389819346267070E-004
   ------- Leaving GDM -- hopefully with a step in the right direction! --------
 
   43    -745.5286170194      8.15E-03  Gap = -157.83 eV  Normal BFGS step
 
   ------------------- Entering Geometric Direct Minimization ------------------
   GDM::trust : actual energy change is       -3.060305245980999E-004
   GDM::trust : predicted energy change was   -8.084729019400600E-004
   GDM::trust : updated trust radius is        0.330000000000000     
   GDM:         diagonal hessian shift is      0.000000000000000E+000
   GDM::PreWSS: input subspace size is                 19
   GDM::PreWSS: working subspace size set to           18
   GDM::PrEWSS: # of linearly dependent vectors =            0
   GDM::PrEWSS: Max dev from orthonormality =   2.799694504007633E-012
   GDM::BFGS:   lowest Hinv e-value    0.179833981428149     
   GDM::BFGS:   highest Hinv e-value    3.04909393785785     
   GDM::      : max scaling in EWCs is          2.82842712474619     
   GDM::      : max rotation in step is       -2.908534695323948E-002
   GDM::        grad.step =  -1.836334165668438E-004
   ------- Leaving GDM -- hopefully with a step in the right direction! --------
 
   44    -745.5289230500      5.53E-03  Gap = -157.83 eV  Normal BFGS step
 
   ------------------- Entering Geometric Direct Minimization ------------------
   GDM::trust : actual energy change is       -1.111176447921025E-004
   GDM::trust : predicted energy change was   -2.754501248502658E-004
   GDM::trust : updated trust radius is        0.330000000000000     
   GDM:         diagonal hessian shift is      0.000000000000000E+000
   GDM::PreWSS: input subspace size is                 19
   GDM::PreWSS: working subspace size set to           18
   GDM::PrEWSS: # of linearly dependent vectors =            0
   GDM::PrEWSS: Max dev from orthonormality =   1.313872621810930E-012
   GDM::BFGS:   lowest Hinv e-value    0.180915156887804     
   GDM::BFGS:   highest Hinv e-value    6.76954906218483     
   GDM::      : max scaling in EWCs is          2.82842712474619     
   GDM::      : max rotation in step is       -5.267224822822048E-002
   GDM::        grad.step =  -1.858152634280488E-004
   ------- Leaving GDM -- hopefully with a step in the right direction! --------
 
   45    -745.5290341676      4.11E-03  Gap = -157.83 eV  Normal BFGS step
 
   ------------------- Entering Geometric Direct Minimization ------------------
   GDM::trust : actual energy change is       -2.202106088589062E-005
   GDM::trust : predicted energy change was   -2.787228951420733E-004
   GDM::trust : updated trust radius is        0.330000000000000     
   GDM:         diagonal hessian shift is      0.000000000000000E+000
   GDM::PreWSS: input subspace size is                 19
   GDM::PreWSS: working subspace size set to           18
   GDM::PrEWSS: # of linearly dependent vectors =            0
   GDM::PrEWSS: Max dev from orthonormality =   1.437767960243974E-011
   GDM::BFGS:   lowest Hinv e-value    0.173126701475676     
   GDM::BFGS:   highest Hinv e-value    8.38716505302193     
   GDM::      : max scaling in EWCs is          2.82842712474619     
   GDM::      : max rotation in step is       -1.049437970142723E-002
   GDM::        grad.step =  -1.638392170363051E-004
   ------- Leaving GDM -- hopefully with a step in the right direction! --------
 
   46    -745.5290561887      8.44E-03  Gap = -157.83 eV  Normal BFGS step
 
   ------------------- Entering Geometric Direct Minimization ------------------
   GDM::trust : actual energy change is       -7.065383829285565E-005
   GDM::trust : predicted energy change was   -2.457588255544579E-004
   GDM::trust : updated trust radius is        0.330000000000000     
   GDM:         diagonal hessian shift is      0.000000000000000E+000
   GDM::PreWSS: input subspace size is                 19
   GDM::PreWSS: working subspace size set to           18
   GDM::PrEWSS: # of linearly dependent vectors =            0
   GDM::PrEWSS: Max dev from orthonormality =   3.740873236179887E-011
   GDM::BFGS:   lowest Hinv e-value    0.179379050217331     
   GDM::BFGS:   highest Hinv e-value    7.80519022365518     
   GDM::      : max scaling in EWCs is          2.82842712474619     
   GDM::      : max rotation in step is        9.725646550484272E-003
   GDM::        grad.step =  -3.212610025326910E-005
   ------- Leaving GDM -- hopefully with a step in the right direction! --------
 
   47    -745.5291268425      1.94E-03  Gap = -157.83 eV  Normal BFGS step
 
   ------------------- Entering Geometric Direct Minimization ------------------
   GDM::trust : actual energy change is       -1.569811843182833E-005
   GDM::trust : predicted energy change was   -4.818915037990364E-005
   GDM::trust : updated trust radius is        0.330000000000000     
   GDM:         diagonal hessian shift is      0.000000000000000E+000
   GDM::PreWSS: input subspace size is                 19
   GDM::PreWSS: working subspace size set to           18
   GDM::PrEWSS: # of linearly dependent vectors =            0
   GDM::PrEWSS: Max dev from orthonormality =   1.008096384147450E-011
   GDM::BFGS:   lowest Hinv e-value    0.165146900131349     
   GDM::BFGS:   highest Hinv e-value    6.60038345918312     
   GDM::      : max scaling in EWCs is          2.82842712474619     
   GDM::      : max rotation in step is       -5.143689802206429E-003
   GDM::        grad.step =  -1.287393129152735E-005
   ------- Leaving GDM -- hopefully with a step in the right direction! --------
 
   48    -745.5291425406      1.60E-03  Gap = -157.83 eV  Normal BFGS step
 
   ------------------- Entering Geometric Direct Minimization ------------------
   GDM::trust : actual energy change is       -9.516639806861349E-006
   GDM::trust : predicted energy change was   -1.931089693729103E-005
   GDM::trust : updated trust radius is        0.330000000000000     
   GDM:         diagonal hessian shift is      0.000000000000000E+000
   GDM::PreWSS: input subspace size is                 19
   GDM::PreWSS: working subspace size set to           18
   GDM::PrEWSS: # of linearly dependent vectors =            0
   GDM::PrEWSS: Max dev from orthonormality =   5.152503423921928E-011
   GDM::BFGS:   lowest Hinv e-value    0.151953658523629     
   GDM::BFGS:   highest Hinv e-value    8.45254505473470     
   GDM::      : max scaling in EWCs is          2.82842712474619     
   GDM::      : max rotation in step is       -9.736179159714963E-003
   GDM::        grad.step =  -1.321337606535719E-005
   ------- Leaving GDM -- hopefully with a step in the right direction! --------
 
   49    -745.5291520573      8.10E-04  Gap = -157.83 eV  Normal BFGS step
 
   ------------------- Entering Geometric Direct Minimization ------------------
   GDM::trust : actual energy change is       -7.980449254318955E-006
   GDM::trust : predicted energy change was   -1.982006409803578E-005
   GDM::trust : updated trust radius is        0.330000000000000     
   GDM:         diagonal hessian shift is      0.000000000000000E+000
   GDM::PreWSS: input subspace size is                 19
   GDM::PreWSS: working subspace size set to           18
   GDM::PrEWSS: # of linearly dependent vectors =            0
   GDM::PrEWSS: Max dev from orthonormality =   1.590286236030636E-011
   GDM::BFGS:   lowest Hinv e-value    0.160199686302973     
   GDM::BFGS:   highest Hinv e-value    9.59193694290992     
   GDM::      : max scaling in EWCs is          2.82842712474619     
   GDM::      : max rotation in step is        4.603367220326826E-003
   GDM::        grad.step =  -3.615024952839913E-006
   ------- Leaving GDM -- hopefully with a step in the right direction! --------
 
   50    -745.5291600377      7.42E-04  Gap = -157.83 eV  Normal BFGS step
 
   ------------------- Entering Geometric Direct Minimization ------------------
   GDM::trust : actual energy change is       -2.637363877511234E-006
   GDM::trust : predicted energy change was   -5.422537429259870E-006
   GDM::trust : updated trust radius is        0.330000000000000     
   GDM:         diagonal hessian shift is      0.000000000000000E+000
   GDM::PreWSS: input subspace size is                 19
   GDM::PreWSS: working subspace size set to           18
   GDM::PrEWSS: # of linearly dependent vectors =            0
   GDM::PrEWSS: Max dev from orthonormality =   3.419739491583584E-011
   GDM::BFGS:   lowest Hinv e-value    0.162679040824556     
   GDM::BFGS:   highest Hinv e-value    12.1095677936740     
   GDM::      : max scaling in EWCs is          2.82842712474619     
   GDM::      : max rotation in step is        7.968966123194483E-003
   GDM::        grad.step =  -4.745458193671512E-006
   ------- Leaving GDM -- hopefully with a step in the right direction! --------
 
   51    -745.5291626751      6.98E-04  Gap = -157.83 eV  Normal BFGS step
 
   ------------------- Entering Geometric Direct Minimization ------------------
   GDM::trust : actual energy change is       -3.262340442233835E-006
   GDM::trust : predicted energy change was   -7.118187290507268E-006
   GDM::trust : updated trust radius is        0.330000000000000     
   GDM:         diagonal hessian shift is      0.000000000000000E+000
   GDM::PreWSS: input subspace size is                 19
   GDM::PreWSS: working subspace size set to           18
   GDM::PrEWSS: # of linearly dependent vectors =            0
   GDM::PrEWSS: Max dev from orthonormality =   3.812593296625977E-011
   GDM::BFGS:   lowest Hinv e-value    0.159844376326375     
   GDM::BFGS:   highest Hinv e-value    14.6362080869692     
   GDM::      : max scaling in EWCs is          2.82842712474619     
   GDM::      : max rotation in step is        8.639468456581012E-003
   GDM::        grad.step =  -4.115473390821879E-006
   ------- Leaving GDM -- hopefully with a step in the right direction! --------
 
   52    -745.5291659374      6.00E-04  Gap = -157.83 eV  Normal BFGS step
 
   ------------------- Entering Geometric Direct Minimization ------------------
   GDM::trust : actual energy change is       -2.930648633991950E-006
   GDM::trust : predicted energy change was   -6.173210086232820E-006
   GDM::trust : updated trust radius is        0.330000000000000     
   GDM:         diagonal hessian shift is      0.000000000000000E+000
   GDM::PreWSS: input subspace size is                 19
   GDM::PreWSS: working subspace size set to           18
   GDM::PrEWSS: # of linearly dependent vectors =            0
   GDM::PrEWSS: Max dev from orthonormality =   2.605742011052570E-011
   GDM::BFGS:   lowest Hinv e-value    0.159671190399249     
   GDM::BFGS:   highest Hinv e-value    18.0332983010425     
   GDM::      : max scaling in EWCs is          2.82842712474619     
   GDM::      : max rotation in step is        9.487945971672476E-003
   GDM::        grad.step =  -3.724680353238374E-006
   ------- Leaving GDM -- hopefully with a step in the right direction! --------
 
   53    -745.5291688681      5.17E-04  Gap = -157.83 eV  Normal BFGS step
 
   ------------------- Entering Geometric Direct Minimization ------------------
   GDM::trust : actual energy change is       -2.583638206488104E-006
   GDM::trust : predicted energy change was   -5.587020529857563E-006
   GDM::trust : updated trust radius is        0.330000000000000     
   GDM:         diagonal hessian shift is      0.000000000000000E+000
   GDM::PreWSS: input subspace size is                 19
   GDM::PreWSS: working subspace size set to           18
   GDM::PrEWSS: # of linearly dependent vectors =            0
   GDM::PrEWSS: Max dev from orthonormality =   4.335400094479525E-011
   GDM::BFGS:   lowest Hinv e-value    0.165840990872521     
   GDM::BFGS:   highest Hinv e-value    21.3607364691387     
   GDM::      : max scaling in EWCs is          2.82842712474619     
   GDM::      : max rotation in step is        8.717968658704904E-003
   GDM::        grad.step =  -2.843632682560685E-006
   ------- Leaving GDM -- hopefully with a step in the right direction! --------
 
   54    -745.5291714517      6.10E-04  Gap = -157.83 eV  Normal BFGS step
 
   ------------------- Entering Geometric Direct Minimization ------------------
   GDM::trust : actual energy change is       -2.037156832557230E-006
   GDM::trust : predicted energy change was   -4.265449023841026E-006
   GDM::trust : updated trust radius is        0.330000000000000     
   GDM:         diagonal hessian shift is      0.000000000000000E+000
   GDM::PreWSS: input subspace size is                 19
   GDM::PreWSS: working subspace size set to           18
   GDM::PrEWSS: # of linearly dependent vectors =            0
   GDM::PrEWSS: Max dev from orthonormality =   2.293641387929313E-010
   GDM::BFGS:   lowest Hinv e-value    0.170395740130402     
   GDM::BFGS:   highest Hinv e-value    29.4436056382408     
   GDM::      : max scaling in EWCs is          2.82842712474619     
   GDM::      : max rotation in step is        1.346273779202713E-002
   GDM::        grad.step =  -3.930148313844936E-006
   ------- Leaving GDM -- hopefully with a step in the right direction! --------
 
   55    -745.5291734889      5.78E-04  Gap = -157.83 eV  Normal BFGS step
 
   ------------------- Entering Geometric Direct Minimization ------------------
   GDM::trust : actual energy change is       -2.069461515930016E-006
   GDM::trust : predicted energy change was   -5.895222470767402E-006
   GDM::trust : updated trust radius is        0.330000000000000     
   GDM:         diagonal hessian shift is      0.000000000000000E+000
   GDM::PreWSS: input subspace size is                 19
   GDM::PreWSS: working subspace size set to           18
   GDM::PrEWSS: # of linearly dependent vectors =            0
   GDM::PrEWSS: Max dev from orthonormality =   1.160719888260164E-010
   GDM::BFGS:   lowest Hinv e-value    0.200825663378328     
   GDM::BFGS:   highest Hinv e-value    37.3682199142270     
   GDM::      : max scaling in EWCs is          2.82842712474619     
   GDM::      : max rotation in step is        1.206500878594697E-002
   GDM::        grad.step =  -4.028601496862546E-006
   ------- Leaving GDM -- hopefully with a step in the right direction! --------
 
   56    -745.5291755583      7.34E-04  Gap = -157.83 eV  Normal BFGS step
 
   ------------------- Entering Geometric Direct Minimization ------------------
   GDM::trust : actual energy change is       -2.433464374007599E-006
   GDM::trust : predicted energy change was   -6.042902245293819E-006
   GDM::trust : updated trust radius is        0.330000000000000     
   GDM:         diagonal hessian shift is      0.000000000000000E+000
   GDM::PreWSS: input subspace size is                 19
   GDM::PreWSS: working subspace size set to           18
   GDM::PrEWSS: # of linearly dependent vectors =            0
   GDM::PrEWSS: Max dev from orthonormality =   2.807527127446363E-011
   GDM::BFGS:   lowest Hinv e-value    0.205429842934287     
   GDM::BFGS:   highest Hinv e-value    40.4155398923243     
   GDM::      : max scaling in EWCs is          2.82842712474619     
   GDM::      : max rotation in step is        8.503260394938117E-003
   GDM::        grad.step =  -3.230011529613816E-006
   ------- Leaving GDM -- hopefully with a step in the right direction! --------
 
   57    -745.5291779918      4.89E-04  Gap = -157.83 eV  Normal BFGS step
 
   ------------------- Entering Geometric Direct Minimization ------------------
   GDM::trust : actual energy change is       -1.888643055281136E-006
   GDM::trust : predicted energy change was   -4.845017294420726E-006
   GDM::trust : updated trust radius is        0.330000000000000     
   GDM:         diagonal hessian shift is      0.000000000000000E+000
   GDM::PreWSS: input subspace size is                 19
   GDM::PreWSS: working subspace size set to           18
   GDM::PrEWSS: # of linearly dependent vectors =            0
   GDM::PrEWSS: Max dev from orthonormality =   6.171903006030321E-011
   GDM::BFGS:   lowest Hinv e-value    0.211665289563738     
   GDM::BFGS:   highest Hinv e-value    44.2031661906633     
   GDM::      : max scaling in EWCs is          2.82842712474619     
   GDM::      : max rotation in step is        8.839143353567535E-003
   GDM::        grad.step =  -3.856218124130130E-006
   ------- Leaving GDM -- hopefully with a step in the right direction! --------
 
   58    -745.5291798804      1.08E-03  Gap = -157.83 eV  Normal BFGS step
 
   ------------------- Entering Geometric Direct Minimization ------------------
   GDM::trust : actual energy change is        2.351646344322944E-007
   GDM::trust : predicted energy change was   -5.784327186195193E-006
   GDM::trust : updated trust radius is        0.108900000000000     
   GDM::search:  On step            1 .  The current bracket is:
       left   : x =  0.0000E+00, e =      -745.5291798804, g = -0.3154E-03
       current: x =  0.1223E-01, e =      -745.5291796453, g =  0.3513E-03
       right  : x =  0.1000E+04, e =      1000.0000000000, g =  0.1000E+04
       next   : x =  0.5761E-02
   GDM::      : max rotation in step is        4.165543388781849E-003
   ------- Leaving GDM -- hopefully with a step in the right direction! --------
 
   59    -745.5291796453      1.23E-03  Gap = -157.83 eV  Line search: overstep
 
   ------------------- Entering Geometric Direct Minimization ------------------
   GDM::trust : actual energy change is       -9.048364972841227E-007
   GDM::trust : predicted energy change was   -5.784327186195193E-006
   GDM::trust : updated trust radius is        0.108900000000000     
   GDM:         diagonal hessian shift is      0.000000000000000E+000
   GDM::PreWSS: input subspace size is                 19
   GDM::PreWSS: working subspace size set to           18
   GDM::PrEWSS: # of linearly dependent vectors =            0
   GDM::PrEWSS: Max dev from orthonormality =   1.688860301607420E-010
   GDM::BFGS:   lowest Hinv e-value    0.176009944050478     
   GDM::BFGS:   highest Hinv e-value    42.2439065837173     
   GDM::      : max scaling in EWCs is          2.82842712474619     
   GDM::      : max rotation in step is        1.602687156258825E-003
   GDM::        grad.step =  -7.009120836786295E-007
   ------- Leaving GDM -- hopefully with a step in the right direction! --------
 
   60    -745.5291807853      2.76E-04  Gap = -157.83 eV  Normal BFGS step
 
   ------------------- Entering Geometric Direct Minimization ------------------
   GDM::trust : actual energy change is       -2.497996547390358E-007
   GDM::trust : predicted energy change was   -1.051368125517944E-006
   GDM::trust : updated trust radius is        0.330000000000000     
   GDM:         diagonal hessian shift is      0.000000000000000E+000
   GDM::PreWSS: input subspace size is                 19
   GDM::PreWSS: working subspace size set to           18
   GDM::PrEWSS: # of linearly dependent vectors =            0
   GDM::PrEWSS: Max dev from orthonormality =   4.420593058274136E-011
   GDM::BFGS:   lowest Hinv e-value    0.174111579072090     
   GDM::BFGS:   highest Hinv e-value    42.5058726269137     
   GDM::      : max scaling in EWCs is          2.82842712474619     
   GDM::      : max rotation in step is        1.020216233091333E-003
   GDM::        grad.step =  -4.889056798180205E-007
   ------- Leaving GDM -- hopefully with a step in the right direction! --------
 
   61    -745.5291810351      3.32E-04  Gap = -157.83 eV  Normal BFGS step
 
   ------------------- Entering Geometric Direct Minimization ------------------
   GDM::trust : actual energy change is       -5.403308023232967E-009
   GDM::trust : predicted energy change was   -7.333585197270308E-007
   GDM::trust : updated trust radius is        0.330000000000000     
   GDM:         diagonal hessian shift is      0.000000000000000E+000
   GDM::PreWSS: input subspace size is                 19
   GDM::PreWSS: working subspace size set to           18
   GDM::PrEWSS: # of linearly dependent vectors =            0
   GDM::PrEWSS: Max dev from orthonormality =   4.043473542103548E-011
   GDM::BFGS:   lowest Hinv e-value    0.182572202267699     
   GDM::BFGS:   highest Hinv e-value    42.6373253336846     
   GDM::      : max scaling in EWCs is          2.82842712474619     
   GDM::      : max rotation in step is        6.694520414649177E-004
   GDM::        grad.step =  -4.016974719059580E-007
   ------- Leaving GDM -- hopefully with a step in the right direction! --------
 
   62    -745.5291810405      3.67E-04  Gap = -157.83 eV  Normal BFGS step
 
   ------------------- Entering Geometric Direct Minimization ------------------
   GDM::trust : actual energy change is       -1.903524662338896E-007
   GDM::trust : predicted energy change was   -6.025462078589369E-007
   GDM::trust : updated trust radius is        0.330000000000000     
   GDM:         diagonal hessian shift is      0.000000000000000E+000
   GDM::PreWSS: input subspace size is                 19
   GDM::PreWSS: working subspace size set to           18
   GDM::PrEWSS: # of linearly dependent vectors =            0
   GDM::PrEWSS: Max dev from orthonormality =   1.438841823464543E-010
   GDM::BFGS:   lowest Hinv e-value    0.187255174518734     
   GDM::BFGS:   highest Hinv e-value    42.7625996622650     
   GDM::      : max scaling in EWCs is          2.82842712474619     
   GDM::      : max rotation in step is        4.668496345586034E-004
   GDM::        grad.step =  -4.897685377814646E-008
   ------- Leaving GDM -- hopefully with a step in the right direction! --------
 
   63    -745.5291812308      6.71E-05  Gap = -157.83 eV  Normal BFGS step
 
   ------------------- Entering Geometric Direct Minimization ------------------
   GDM::trust : actual energy change is       -2.268996013299329E-008
   GDM::trust : predicted energy change was   -7.346528066721970E-008
   GDM::trust : updated trust radius is        0.330000000000000     
   GDM:         diagonal hessian shift is      0.000000000000000E+000
   GDM::PreWSS: input subspace size is                 19
   GDM::PreWSS: working subspace size set to           18
   GDM::PrEWSS: # of linearly dependent vectors =            0
   GDM::PrEWSS: Max dev from orthonormality =   3.205801180072854E-010
   GDM::BFGS:   lowest Hinv e-value    0.189718474779446     
   GDM::BFGS:   highest Hinv e-value    43.8546396889064     
   GDM::      : max scaling in EWCs is          2.82842712474619     
   GDM::      : max rotation in step is        3.732570353632618E-004
   GDM::        grad.step =  -1.806870358893570E-008
   ------- Leaving GDM -- hopefully with a step in the right direction! --------
 
   64    -745.5291812535      4.75E-05  Gap = -157.83 eV  Normal BFGS step
 
   ------------------- Entering Geometric Direct Minimization ------------------
   GDM::trust : actual energy change is       -1.075898126146058E-008
   GDM::trust : predicted energy change was   -2.710305538340357E-008
   GDM::trust : updated trust radius is        0.330000000000000     
   GDM:         diagonal hessian shift is      0.000000000000000E+000
   GDM::PreWSS: input subspace size is                 19
   GDM::PreWSS: working subspace size set to           18
   GDM::PrEWSS: # of linearly dependent vectors =            0
   GDM::PrEWSS: Max dev from orthonormality =   8.435110943061375E-011
   GDM::BFGS:   lowest Hinv e-value    0.186764412473766     
   GDM::BFGS:   highest Hinv e-value    43.7346667210045     
   GDM::      : max scaling in EWCs is          2.82842712474619     
   GDM::      : max rotation in step is       -1.895536241204413E-004
   GDM::        grad.step =  -1.089256132567781E-008
   ------- Leaving GDM -- hopefully with a step in the right direction! --------
 
   65    -745.5291812643      3.90E-05  Gap = -157.83 eV  Normal BFGS step
 
   ------------------- Entering Geometric Direct Minimization ------------------
   GDM::trust : actual energy change is       -6.592472345801070E-009
   GDM::trust : predicted energy change was   -1.633884198851672E-008
   GDM::trust : updated trust radius is        0.330000000000000     
   GDM:         diagonal hessian shift is      0.000000000000000E+000
   GDM::PreWSS: input subspace size is                 19
   GDM::PreWSS: working subspace size set to           18
   GDM::PrEWSS: # of linearly dependent vectors =            0
   GDM::PrEWSS: Max dev from orthonormality =   6.712431999122970E-011
   GDM::BFGS:   lowest Hinv e-value    0.197914150522424     
   GDM::BFGS:   highest Hinv e-value    43.7724133948689     
[...]
   GDM::trust : updated trust radius is        0.108900000000000     
   GDM::WARNING energy changes are now smaller than effective accuracy.
   GDM::        calculation will continue, but THRESH should be increased
   GDM::        or SCF_CONVERGENCE decreased.
   GDM::        effective_thresh =   3.200000000000000E-010
   GDM:         diagonal hessian shift is      0.000000000000000E+000
   GDM::PreWSS: input subspace size is                 19
   GDM::PreWSS: working subspace size set to           18
   GDM::PrEWSS: # of linearly dependent vectors =           12
   GDM::PrEWSS: Max dev from orthonormality =   4.723114122029415E-010
   GDM::BFGS:   lowest Hinv e-value    0.229022771848915     
   GDM::BFGS:   highest Hinv e-value    12.5506900861998     
   GDM::      : max scaling in EWCs is          2.82842712474619     
   GDM::      : max rotation in step is       -2.690835610007353E-007
   GDM::        grad.step =  -1.084104457027121E-014
   ------- Leaving GDM -- hopefully with a step in the right direction! --------
 
   24    -745.6123198211      2.68E-08  Gap = 27.21 eV  Normal BFGS step
 
   ------------------- Entering Geometric Direct Minimization ------------------
   GDM::trust : actual energy change is        2.273736754432321E-013
   GDM::trust : predicted energy change was   -1.626156685540680E-014
   GDM::trust : updated trust radius is        0.108900000000000     
   GDM::WARNING energy changes are now smaller than effective accuracy.
   GDM::        calculation will continue, but THRESH should be increased
   GDM::        or SCF_CONVERGENCE decreased.
   GDM::        effective_thresh =   4.723114122029415E-010
   GDM:         diagonal hessian shift is      0.000000000000000E+000
   GDM::PreWSS: input subspace size is                 19
   GDM::PreWSS: working subspace size set to           18
   GDM::PrEWSS: # of linearly dependent vectors =           12
   GDM::PrEWSS: Max dev from orthonormality =   7.515507313704539E-011
   GDM::BFGS:   lowest Hinv e-value    0.222772835909222     
   GDM::BFGS:   highest Hinv e-value    14.4771792275010     
   GDM::      : max scaling in EWCs is          2.82842712474619     
   GDM::      : max rotation in step is       -1.591418357247355E-007
   GDM::        grad.step =  -8.911955509782533E-015
   ------- Leaving GDM -- hopefully with a step in the right direction! --------
 
   25    -745.6123198211      4.74E-08  Gap = 27.21 eV  Normal BFGS step
 
   ------------------- Entering Geometric Direct Minimization ------------------
   GDM::trust : actual energy change is        4.547473508864641E-013
   GDM::trust : predicted energy change was   -1.336793326467380E-014
   GDM::trust : updated trust radius is        0.108900000000000     
   GDM::WARNING energy changes are now smaller than effective accuracy.
   GDM::        calculation will continue, but THRESH should be increased
   GDM::        or SCF_CONVERGENCE decreased.
   GDM::        effective_thresh =   4.723114122029415E-010
   GDM:         diagonal hessian shift is      0.000000000000000E+000
   GDM::PreWSS: input subspace size is                 19
   GDM::PreWSS: working subspace size set to           18
   GDM::PrEWSS: # of linearly dependent vectors =           12
   GDM::PrEWSS: Max dev from orthonormality =   4.811921694436450E-011
   GDM::BFGS:   lowest Hinv e-value    0.187189405418155     
   GDM::BFGS:   highest Hinv e-value    11.4327551364048     
   GDM::      : max scaling in EWCs is          2.82842712474619     
   GDM::      : max rotation in step is        1.561264435051854E-007
   GDM::        grad.step =  -1.604022218289767E-014
   ------- Leaving GDM -- hopefully with a step in the right direction! --------
 
   26    -745.6123198211      1.03E-07  Gap = 27.21 eV  Normal BFGS step
 
   ------------------- Entering Geometric Direct Minimization ------------------
   GDM::trust : actual energy change is       -1.477928890381008E-012
   GDM::trust : predicted energy change was   -2.406033327434650E-014
   GDM::trust : updated trust radius is        0.330000000000000     
   GDM:         diagonal hessian shift is      0.000000000000000E+000
   GDM::PreWSS: input subspace size is                 19
   GDM::PreWSS: working subspace size set to           18
   GDM::PrEWSS: # of linearly dependent vectors =           12
   GDM::PrEWSS: Max dev from orthonormality =   1.500998908499085E-010
   GDM::BFGS:   lowest Hinv e-value    0.187679644318836     
   GDM::BFGS:   highest Hinv e-value    11.7688416922423     
   GDM::      : max scaling in EWCs is          2.82842712474619     
   GDM::      : max rotation in step is        2.542940324262835E-008
   GDM::        grad.step =  -8.585009852143000E-016
   ------- Leaving GDM -- hopefully with a step in the right direction! --------
 
   27    -745.6123198211      1.10E-08  Gap = -180.00 eV  Normal BFGS step
 
   ------------------- Entering Geometric Direct Minimization ------------------
   GDM::trust : actual energy change is       -3.410605131648481E-013
   GDM::trust : predicted energy change was   -1.287751477821450E-015
   GDM::trust : updated trust radius is        0.330000000000000     
   GDM:         diagonal hessian shift is      0.000000000000000E+000
   GDM::PreWSS: input subspace size is                 19
   GDM::PreWSS: working subspace size set to           18
   GDM::PrEWSS: # of linearly dependent vectors =           12
   GDM::PrEWSS: Max dev from orthonormality =   5.054634315271311E-011
   GDM::BFGS:   lowest Hinv e-value    0.189671318620573     
   GDM::BFGS:   highest Hinv e-value    11.5896353255990     
   GDM::      : max scaling in EWCs is          2.82842712474619     
   GDM::      : max rotation in step is        1.130753602354470E-008
   GDM::        grad.step =  -1.272484658011942E-015
   ------- Leaving GDM -- hopefully with a step in the right direction! --------
 
   28    -745.6123198211      2.66E-08  Gap = -180.00 eV  Normal BFGS step
 
   ------------------- Entering Geometric Direct Minimization ------------------
   GDM::trust : actual energy change is        4.547473508864641E-013
   GDM::trust : predicted energy change was   -1.908726987017912E-015
   GDM::trust : updated trust radius is        0.108900000000000     
   GDM::WARNING energy changes are now smaller than effective accuracy.
   GDM::        calculation will continue, but THRESH should be increased
   GDM::        or SCF_CONVERGENCE decreased.
   GDM::        effective_thresh =   4.723114122029415E-010
   GDM:         diagonal hessian shift is      0.000000000000000E+000
   GDM::PreWSS: input subspace size is                 19
   GDM::PreWSS: working subspace size set to           18
   GDM::PrEWSS: # of linearly dependent vectors =           11
   GDM::PrEWSS: Max dev from orthonormality =   8.050094618683445E-011
   GDM::BFGS:   lowest Hinv e-value    0.188446559946906     
   GDM::BFGS:   highest Hinv e-value    11.5966072276130     
   GDM::      : max scaling in EWCs is          2.82842712474619     
   GDM::      : max rotation in step is       -3.221354080015320E-009
   GDM::        grad.step =  -2.588691030944587E-017
   ------- Leaving GDM -- hopefully with a step in the right direction! --------
 
   29    -745.6123198211      1.17E-09 Convergence criterion met
 ---------------------------------------
 One-Electron    Energy = -1591.9792101187
 Total Coulomb   Energy =   635.5012474984
 Alpha Exchange  Energy =    -6.5814127934
 Beta  Exchange  Energy =    -6.0278653598
 DFT   Exchange  Energy =   -50.3327526868
 DFT Correlation Energy =    -2.7846632591
 Nuclear Repu.   Energy =   276.5923368983
 Nuclear Attr.   Energy = -2311.5951867640
 Kinetic         Energy =   719.6159766453
 <S^2> = 6.0346
 SCF time:  CPU 141.98 s  wall 12.62 s
 SCF   energy in the final basis set = -745.6123198211
 Total energy in the final basis set = -745.6123198211
 
 --------------------------------------------------------------
 
                    Orbital Energies (a.u.)
 --------------------------------------------------------------
 
 Alpha MOs
 -- Occupied --
-89.066 -19.316 -19.190 -19.190 -19.142  -8.130  -6.093  -6.092
 -6.092  -2.044  -1.268  -1.252  -1.251  -1.175  -0.933  -0.919
 -0.865  -0.791  -0.570  -0.545  -0.545  -0.401  -0.400  -0.362
 -0.362  -0.358  -0.350  -0.339  -0.332  -0.325  -0.318  -0.311
 -- Virtual --
 -0.098  -0.030  -0.029  -0.018  -0.003   0.010   0.017   0.018
  0.039   0.043   0.049   0.054   0.055   0.090   0.141   0.153
  0.161   0.186   0.189   0.199   0.202   0.212   0.238   0.243
  0.246   0.249   0.258   0.260   0.265   0.283   0.302   0.309
  0.329   0.363   0.373   0.417   0.418   0.433   0.570   0.586
  0.588   0.638   0.644   0.755   0.767   0.841   1.006   1.080
  1.086   1.098   1.132   1.164   1.174   1.197   1.210   1.218
  1.235   1.261   1.318   1.591   1.653   1.668   1.689   1.689
  1.717   1.739   1.764   1.770   1.779   1.785   1.792   1.800
  1.827   1.830   1.855   1.857   1.872   1.877   1.902   1.935
  1.940   2.064   2.573  13.457
 
 Beta MOs
 -- Occupied --
-89.058 -19.298 -19.166 -19.166 -19.133  -8.122  -6.088  -6.077
 -6.077  -2.048  -1.270  -1.254  -1.254  -1.140  -0.863  -0.849
 -0.839  -0.730  -0.538  -0.483  -0.483  -0.339  -0.337  -0.321
 -0.315  -0.313  -0.297  -0.282
 -- Virtual --
 -0.222  -0.222  -0.178  -0.171  -0.081  -0.024  -0.024  -0.015
  0.002   0.019   0.023   0.023   0.051   0.054   0.056   0.060
  0.061   0.097   0.145   0.161   0.168   0.193   0.194   0.205
  0.209   0.220   0.243   0.250   0.251   0.258   0.260   0.261
  0.267   0.287   0.306   0.314   0.335   0.368   0.377   0.441
  0.442   0.444   0.589   0.658   0.661   0.672   0.677   0.771
  0.782   0.848   1.034   1.108   1.115   1.158   1.186   1.191
  1.209   1.219   1.222   1.233   1.255   1.276   1.330   1.613
  1.691   1.699   1.713   1.722   1.744   1.793   1.802   1.811
  1.815   1.828   1.829   1.850   1.854   1.857   1.880   1.884
  1.891   1.916   1.923   1.963   1.973   2.077   2.593  13.458
 --------------------------------------------------------------
 
          Ground-State Mulliken Net Atomic Charges

     Atom                 Charge (a.u.)    Spin (a.u.)
  --------------------------------------------------------
      1 Zr                    1.590113      -0.199400
      2 O                    -0.605550       0.473825
      3 O                    -0.525370       0.948250
      4 O                    -0.525434       0.948278
      5 O                    -0.513749       0.362211
      6 S                     0.579990       1.466835
  --------------------------------------------------------
  Sum of atomic charges =     0.000000
  Sum of spin   charges =     4.000000

 -----------------------------------------------------------------
                    Cartesian Multipole Moments
 -----------------------------------------------------------------
    Charge (ESU x 10^10)
                 0.0000
    Dipole Moment (Debye)
         X      -8.7967      Y       1.9063      Z      -0.0340
       Tot       9.0009
    Quadrupole Moments (Debye-Ang)
        XX     -43.0619     XY      -1.4154     YY     -63.0657
        XZ       0.0623     YZ      -0.0136     ZZ     -65.1042
    Octopole Moments (Debye-Ang^2)
       XXX     -50.8008    XXY      -2.1529    XYY      -3.4856
       YYY      15.2056    XXZ      -0.2573    XYZ      -0.0492
       YYZ      -0.3361    XZZ     -10.8242    YZZ     -13.8189
       ZZZ       0.2402
    Hexadecapole Moments (Debye-Ang^3)
      XXXX    -840.6569   XXXY       2.2715   XXYY    -223.8075
      XYYY      40.3981   YYYY    -257.8768   XXXZ      -0.8118
      XXYZ      -0.2058   XYYZ      -1.0193   YYYZ       0.0272
      XXZZ    -245.9696   XYZZ     -10.2461   YYZZ     -92.9897
      XZZZ      -1.5511   YZZZ      -0.2422   ZZZZ    -312.8015
 -----------------------------------------------------------------
 Calculating analytic gradient of the SCF energy
 Gradient of SCF Energy
            1           2           3           4           5           6
    1  -0.0001629   0.0001023   0.0000340   0.0000154   0.0000266  -0.0000155
    2  -0.0000193  -0.0000031  -0.0000081   0.0000066   0.0000314  -0.0000074
    3   0.0000116  -0.0000082   0.0000775  -0.0000739  -0.0000005  -0.0000066
 Max gradient component =       1.629E-04
 RMS gradient           =       5.404E-05
 Gradient time:  CPU 19.69 s  wall 10.45 s
 Geometry Optimization Parameters
   NAtoms,    NIC,     NZ,  NCons,   NDum,   NFix, NCnnct, MaxDiis
        6      27       0       0       0       0       0       0

 Cartesian Hessian Update
 Hessian Updated using BFGS Update


** GEOMETRY OPTIMIZATION IN DELOCALIZED INTERNAL COORDINATES **
   Searching for a Minimum

   Optimization Cycle:  21

                       Coordinates (Angstroms)
     ATOM                X               Y               Z
      1  Zr        0.7246084406   -0.0352146981    0.0037306976
      2  O        -1.5560861644    0.2821992636   -0.0029993537
      3  O         1.4701502610    0.7464113219    1.6937180042
      4  O         1.4680292837    0.7212372714   -1.6986064623
      5  O         0.9336038696   -1.8253564985    0.0166763975
      6  S        -3.0712356904    0.2313433398   -0.0125292834
   Point Group: c1    Number of degrees of freedom:    12


   Energy is   -745.612319821

 Hessian Updated using BFGS Update

 12 Hessian modes will be used to form the next step
  Hessian Eigenvalues:
     0.001981    0.004649    0.034691    0.046996    0.057839    0.080079
     0.144185    0.246620    0.265658    0.305490    0.508588    0.566109

 Minimum Search - Taking Simple RFO Step
 Searching for Lamda that Minimizes Along All modes
 Value Taken    Lamda =   0.00000000
 Step Taken.  Stepsize is  0.003291

                             Maximum     Tolerance    Cnvgd?
         Gradient           0.000103      0.000300     YES
         Displacement       0.002407      0.001200      NO
         Energy change     -0.000001      0.000001     YES


                       Distance Matrix (Angstroms)
             Zr(  1)   O (  2)   O (  3)   O (  4)   O (  5)
   O (  2)  2.302686
   O (  3)  2.005699  3.500350
   O (  4)  2.005703  3.494726  3.392419
   O (  5)  1.802347  3.262014  3.116784  3.116560
   S (  6)  3.805227  1.516033  4.878602  4.867009  4.502178
 
 Final energy is   -745.612319821102     


 ******************************
 **  OPTIMIZATION CONVERGED  **
 ******************************

                       Coordinates (Angstroms)
     ATOM                X               Y               Z
      1  Zr        0.7246084406   -0.0352146981    0.0037306976
      2  O        -1.5560861644    0.2821992636   -0.0029993537
      3  O         1.4701502610    0.7464113219    1.6937180042
      4  O         1.4680292837    0.7212372714   -1.6986064623
      5  O         0.9336038696   -1.8253564985    0.0166763975
      6  S        -3.0712356904    0.2313433398   -0.0125292834

Z-matrix Print:
$molecule
0 5
Zr
O  1 1.802347
O  1 2.005699 2 109.749515
O  1 2.005703 2 109.737586 3 -127.926811 0
O  1 2.302686 2 104.583018 3 116.188520 0
S  5 1.516033 1 170.152612 2 1.522972 0
$end

 
 --------------------------------------------------------------
 
                    Orbital Energies (a.u.)
 --------------------------------------------------------------
 
 Alpha MOs
 -- Occupied --
-89.066 -19.316 -19.190 -19.190 -19.142  -8.130  -6.093  -6.092
 -6.092  -2.044  -1.268  -1.252  -1.251  -1.175  -0.933  -0.919
 -0.865  -0.791  -0.570  -0.545  -0.545  -0.401  -0.400  -0.362
 -0.362  -0.358  -0.350  -0.339  -0.332  -0.325  -0.318  -0.311
 -- Virtual --
 -0.098  -0.030  -0.029  -0.018  -0.003   0.010   0.017   0.018
  0.039   0.043   0.049   0.054   0.055   0.090   0.141   0.153
  0.161   0.186   0.189   0.199   0.202   0.212   0.238   0.243
  0.246   0.249   0.258   0.260   0.265   0.283   0.302   0.309
  0.329   0.363   0.373   0.417   0.418   0.433   0.570   0.586
  0.588   0.638   0.644   0.755   0.767   0.841   1.006   1.080
  1.086   1.098   1.132   1.164   1.174   1.197   1.210   1.218
  1.235   1.261   1.318   1.591   1.653   1.668   1.689   1.689
  1.717   1.739   1.764   1.770   1.779   1.785   1.792   1.800
  1.827   1.830   1.855   1.857   1.872   1.877   1.902   1.935
  1.940   2.064   2.573  13.457
 
 Beta MOs
 -- Occupied --
-89.058 -19.298 -19.166 -19.166 -19.133  -8.122  -6.088  -6.077
 -6.077  -2.048  -1.270  -1.254  -1.254  -1.140  -0.863  -0.849
 -0.839  -0.730  -0.538  -0.483  -0.483  -0.339  -0.337  -0.321
 -0.315  -0.313  -0.297  -0.282
 -- Virtual --
 -0.222  -0.222  -0.178  -0.171  -0.081  -0.024  -0.024  -0.015
  0.002   0.019   0.023   0.023   0.051   0.054   0.056   0.060
  0.061   0.097   0.145   0.161   0.168   0.193   0.194   0.205
  0.209   0.220   0.243   0.250   0.251   0.258   0.260   0.261
  0.267   0.287   0.306   0.314   0.335   0.368   0.377   0.441
  0.442   0.444   0.589   0.658   0.661   0.672   0.677   0.771
  0.782   0.848   1.034   1.108   1.115   1.158   1.186   1.191
  1.209   1.219   1.222   1.233   1.255   1.276   1.330   1.613
  1.691   1.699   1.713   1.722   1.744   1.793   1.802   1.811
  1.815   1.828   1.829   1.850   1.854   1.857   1.880   1.884
  1.891   1.916   1.923   1.963   1.973   2.077   2.593  13.458
 --------------------------------------------------------------
 
          Ground-State Mulliken Net Atomic Charges

     Atom                 Charge (a.u.)    Spin (a.u.)
  --------------------------------------------------------
      1 Zr                    1.590113      -0.199400
      2 O                    -0.605550       0.473825
      3 O                    -0.525370       0.948250
      4 O                    -0.525434       0.948278
      5 O                    -0.513749       0.362211
      6 S                     0.579990       1.466835
  --------------------------------------------------------
  Sum of atomic charges =     0.000000
  Sum of spin   charges =     4.000000

 -----------------------------------------------------------------
                    Cartesian Multipole Moments
 -----------------------------------------------------------------
    Charge (ESU x 10^10)
                 0.0000
    Dipole Moment (Debye)
         X      -8.7967      Y       1.9063      Z      -0.0340
       Tot       9.0009
    Quadrupole Moments (Debye-Ang)
        XX     -43.0619     XY      -1.4154     YY     -63.0657
        XZ       0.0623     YZ      -0.0136     ZZ     -65.1042
    Octopole Moments (Debye-Ang^2)
       XXX     -50.8008    XXY      -2.1529    XYY      -3.4856
       YYY      15.2056    XXZ      -0.2573    XYZ      -0.0492
       YYZ      -0.3361    XZZ     -10.8242    YZZ     -13.8189
       ZZZ       0.2402
    Hexadecapole Moments (Debye-Ang^3)
      XXXX    -840.6569   XXXY       2.2715   XXYY    -223.8075
      XYYY      40.3981   YYYY    -257.8768   XXXZ      -0.8118
      XXYZ      -0.2058   XYYZ      -1.0193   YYYZ       0.0272
      XXZZ    -245.9696   XYZZ     -10.2461   YYZZ     -92.9897
      XZZZ      -1.5511   YZZZ      -0.2422   ZZZZ    -312.8015
 -----------------------------------------------------------------
Archival summary:
1\1\hpc3461\OPT\ProcedureUnspecified\BasisUnspecified\r114(\liqiuy\FriJan1719:54:152020FriJan1719:54:152020\0\\#,OPT,ProcedureUnspecified,BasisUnspecified,\\28,5\Zr\O,1,1.80235\O,1,2.0057,2,109.75\O,1,2.0057,2,109.738,3,-127.927,0\O,1,2.30269,2,104.583,3,116.189,0\S,5,1.51603,1,170.153,2,1.52297,0\\\@

 Total job time:  374.23s(wall), 3730.74s(cpu) 
 Fri Jan 17 19:54:15 2020

        *************************************************************
        *                                                           *
        *  Thank you very much for using Q-Chem.  Have a nice day.  *
        *                                                           *
        *************************************************************


0 sent ACK to 0 
now end server 0 ... 
cleanup process ... done
