
Running Job 1 of 2 ZrOx.in
qchem ZrOx.in_12528.0 /tmp/5732738.priya/ZrOx.save/ 1
/usr/usc/qchem/4.4/bin/mpi/mpirun_qchem -machinefile /usr/usc/qchem/4.4/bin/mpi/machines -np 1 /usr/usc/qchem/4.4/exe/qcprog.exe ZrOx.in_12528.0 /tmp/5732738.priya/ZrOx.save/

Process 0 of 1 is on hpc3465.hpcc.usc.edu - thread support 0
initial socket setup ...start
initial socket setup ...done 
now start server 0 ... 
Check license passed

                  Welcome to Q-Chem
     A Quantum Leap Into The Future Of Chemistry


 Q-Chem 4.4, Q-Chem, Inc., Pleasanton, CA (2016)

 Y. Shao,  Z. Gan,  E. Epifanovsky,  A. T. B. Gilbert,  M. Wormit,  
 J. Kussmann,  A. W. Lange,  A. Behn,  J. Deng,  X. Feng,  D. Ghosh,  
 M. Goldey,  P. R. Horn,  L. D. Jacobson,  I. Kaliman,  F.Rob,  
 R. Z. Khaliullin,  T. Kus,  A. Landau,  J. Liu,  E. I. Proynov,  Y. M. Rhee,  
 R. M. Richard,  M. A. Rohrdanz,  R. P. Steele,  E. J. Sundstrom,  
 H. L. Woodcock III,  P. M. Zimmerman,  D. Zuev,  B. Albrecht,  E. Alguire,  
 B. Austin,  S. A. Baeppler,  G. J. O. Beran,  Y. A. Bernard,  E. Berquist,  
 K. Brandhorst,  K. B. Bravaya,  S. T. Brown,  D. Casanova,  C.-M. Chang,  
 Y. Chen,  S. H. Chien,  K. D. Closser,  M. P. Coons,  D. L. Crittenden,  
 S. Dasgupta,  M. Diedenhofen,  R. A. DiStasio Jr.,  H. Do,  A. D. Dutoi,  
 R. G. Edgar,  P.-T. Fang,  S. Fatehi,  Q. Feng,  L. Fusti-Molnar,  
 A. Ghysels,  A. Golubeva-Zadorozhnaya,  J. Gomes,  A. Gunina,  
 M. W. D. Hanson-Heine,  P. H. P. Harbach,  A. W. Hauser,  E. G. Hohenstein,  
 Z. C. Holden,  K. Hui,  T.-C. Jagau,  H. Ji,  B. Kaduk,  K. Khistyaev,  
 Jaehoon Kim,  Jihan Kim,  R. A. King,  P. Klunzinger,  D. Kosenkov,  
 T. Kowalczyk,  C. M. Krauter,  A. Kunitsa,  K. U. Lao,  A. Laurent,  
 K. V. Lawler,  D. Lefrancois,  S. Lehtola,  S. V. Levchenko,  C. Y. Lin,  
 Y.-S. Lin,  F. Liu,  E. Livshits,  R. C. Lochan,  A. Luenser,  P. Manohar,  
 S. F. Manzer,  S.-P. Mao,  Y. Mao,  N. Mardirossian,  A. V. Marenich,  
 L. A. Martinez-Martinez,  S. A. Maurer,  N. J. Mayhall,  J.-M. Mewes,  
 A. F. Morrison,  K. Nanda,  C. M. Oana,  R. Olivares-Amaya,  D. P. O'Neill,  
 J. A. Parkhill,  T. M. Perrine,  R. Peverati,  P. A. Pieniazek,  F. Plasser,  
 A. Prociuk,  D. R. Rehn,  E. Rosta,  N. J. Russ,  N. Sergueev,  
 S. M. Sharada,  S. Sharma,  D. W. Small,  A. Sodt,  T. Stauch,  T. Stein,  
 D. Stuck,  Y.-C. Su,  A. J. W. Thom,  T. Tsuchimochi,  L. Vogt,  O. Vydrov,  
 T. Wang,  M. A. Watson,  J. Wenzel,  A. White,  C. F. Williams,  
 V. Vanovschi,  S. Yeganeh,  S. R. Yost,  Z.-Q. You,  I. Y. Zhang,  X. Zhang,  
 Y. Zhao,  B. R. Brooks,  G. K. L. Chan,  D. M. Chipman,  C. J. Cramer,  
 W. A. Goddard III,  M. S. Gordon,  W. J. Hehre,  A. Klamt,  
 H. F. Schaefer III,  M. W. Schmidt,  C. D. Sherrill,  D. G. Truhlar,  
 A. Warshel,  X. Xu,  A. Aspuru-Guzik,  R. Baer,  A. T. Bell,  N. A. Besley,  
 J.-D. Chai,  A. Dreuw,  B. D. Dunietz,  T. R. Furlani,  S. R. Gwaltney,  
 C.-P. Hsu,  Y. Jung,  J. Kong,  D. S. Lambrecht,  W. Liang,  C. Ochsenfeld,  
 V. A. Rassolov,  L. V. Slipchenko,  J. E. Subotnik,  T. Van Voorhis,  
 J. M. Herbert,  A. I. Krylov,  P. M. W. Gill,  M. Head-Gordon

 Contributors to earlier versions of Q-Chem not listed above: 
 R. D. Adamson,  J. Baker,  E. F. C. Byrd,  A. K. Chakraborty,  C.-L. Cheng,  
 H. Dachsel,  R. J. Doerksen,  G. Hawkins,  A. Heyden,  S. Hirata,  
 G. Kedziora,  F. J. Keil,  C. Kelley,  P. P. Korambath,  W. Kurlancheek,  
 A. M. Lee,  M. S. Lee,  D. Liotard,  I. Lotan,  P. E. Maslen,  N. Nair,  
 D. Neuhauser,  R. Olson,  B. Peters,  J. Ritchie,  N. E. Schultz,  
 N. Shenvi,  A. C. Simmonett,  K. S. Thanthiriwatte,  Q. Wu,  W. Zhang

 Please cite Q-Chem as follows:
 Y. Shao et al., Mol. Phys. 113, 184-215 (2015)
 DOI: 10.1080/00268976.2014.952696

 Q-Chem 4.4.1 for Intel X86 Linux

 Parts of Q-Chem use Armadillo 5.200.1 (Boston Tea Smuggler).
 http://arma.sourceforge.net/

 Q-Chem begins on Fri Jan 17 19:50:40 2020  

Host: 
0

     Scratch files written to /tmp/5732738.priya/ZrOx.save//
 Jul2716 11668_ 21447  21445 5558   
 Parallel job on  1  processors
Processing $rem in /usr/usc/qchem/4.4/config/preferences.
 MEM_TOTAL  2000 

Checking the input file for inconsistencies... 	...done.

--------------------------------------------------------------
User input:
--------------------------------------------------------------
$comment
--------------------------------------------------------
A SINGLE POINT DFT CALCULATION WITH BASIS SET PROJECTION
--------------------------------------------------------
$end

$molecule
0 1
Zr 0.77954 -0.01768 0.19047
S -1.62539 0.41964 -0.35299
O -0.81582 0.77360 1.04625
O 1.62361 0.93898 -0.95690
O 0.88151 -1.69874 -0.11740
O -2.48326 -0.77591 -0.22942
$end

$rem
JOBTYPE   SP
METHOD   B3LYP
BASIS   GEN
ECP   GEN
MAX_SCF_CYCLES   200
SCF_CONVERGENCE 8
SCF_ALGORITHM  DIIS_GDM
SCF_PRINT 1
PDB_PRINT 2
THRESH 14
VARTHRESH 14
INCDFT FALSE
SYMMETRY False
Sym_ignore True
SCF_ALGORITHM GDM
XC_GRID 000128000302
DFT_D           EMPIRICAL_GRIMME3
DFT_D3_S6       1000
DFT_D3_RS6     1261
DFT_D3_S8      1703
DFT_D3_3BODY    FALSE
$end

$basis
O
6-31+G**
****
S
6-31+G**
****
Zr
LanL2DZ
****
$end

$ecp
Zr
LanL2DZ
****
$end

--------------------------------------------------------------
 ----------------------------------------------------------------
             Standard Nuclear Orientation (Angstroms)
    I     Atom           X                Y                Z
 ----------------------------------------------------------------
    1      Zr      0.7795400000    -0.0176800000     0.1904700000
    2      S      -1.6253900000     0.4196400000    -0.3529900000
    3      O      -0.8158200000     0.7736000000     1.0462500000
    4      O       1.6236100000     0.9389800000    -0.9569000000
    5      O       0.8815100000    -1.6987400000    -0.1174000000
    6      O      -2.4832600000    -0.7759100000    -0.2294200000
 ----------------------------------------------------------------
 Nuclear Repulsion Energy =   331.4970231553 hartrees
 There are       30 alpha and       30 beta electrons

 Q-Chem warning in module /home/scratch/svnadmin/11668_zgan/qchem/forms1/BasisType.C, line 1419:

 Setting pure/cartesian flag to 2111 for general basis


 Requested basis set is non-standard
 There are 34 shells and 116 basis functions

 Total QAlloc Memory Limit   2000 MB
 Mega-Array Size        61 MB
 MEM_STATIC part        62 MB

                       Distance Matrix (Angstroms)
             Zr(  1)   S (  2)   O (  3)   O (  4)   O (  5)
   S (  2)  2.504054
   O (  3)  1.975767  1.654861
   O (  4)  1.715841  3.345209  3.160819
   O (  5)  1.712059  3.290529  3.216749  2.865840
   O (  6)  3.375957  1.476669  2.609343  4.509596  3.490822
 
 A cutoff of  1.0D-14 yielded    572 shell pairs
 There are      6853 function pairs (      7718 Cartesian)
 
 -------------------------------------------------------
 OpenMP Integral Computing Module                       
 Release: version 1.0, May 2013, Q-Chem Inc. Pittsburgh 
 -------------------------------------------------------
 Integral Job Info:
 Integral job number is                      11
 Integral operator is                         1
 short-range coefficients                     0
 long-range coefficients              100000000
 Omega coefficients                           0
 if combine SR and LR in K                    0
 Integral screening is                        0
 Integral computing path is                   2
 max size of driver memory is            800000
 size of driver memory is                593474
 size of scratch memory is             15166112
 max col of scratch BK array               1296
 max len of scratch array in speh3          155
 max len of scratch index in speh4           18
 max int batch size is                      520
 min int batch size is                       52
 fixed nKL is                                52
 max L of basis functions is                  2
 order of int derivative is                   0
 number of shells is                         34
 number of basis is                         123
 number of cartesian basis is               123
 number of contracted shell pairs           572
 number of primitive shell pairs           2714
 maxK2 (contraction) of shell pair           36
 max number of K2 of shell pair               1
 max number of CS2 of shell pair             60
 max number of PS2 of shell pair            336
 mem total for path MDJ                   29944
 -------------------------------------------------------
 Requested basis set is non-standard
 Compound shells will be simplified
 There are 50 shells and 116 basis functions
 A cutoff of  1.0D-14 yielded   1239 shell pairs
 There are      6805 function pairs (      7670 Cartesian)
 Smallest overlap matrix eigenvalue = 5.37E-04

 Scale SEOQF with 1.000000e-01/1.000000e-01/1.000000e-01

 Standard Electronic Orientation quadrupole field applied
 Nucleus-field energy     =     0.0000000057 hartrees
 Guess MOs from core Hamiltonian diagonalization
 A restricted hybrid HF-DFT SCF calculation will be
 performed using Geometric Direct Minimization
 Exchange:     0.2000 Hartree-Fock + 0.0800 Slater + 0.7200 B88
 Correlation:  0.1900 VWN1RPA + 0.8100 LYP
 Using Euler-Maclaurin-Lebedev (128,302) quadrature formula
 Dispersion:   Grimme D3
 SCF converges when RMS gradient is below 1.0E-08
 Maximum number of minimization steps = 200
 using 12 threads for integral computing 
 -------------------------------------------------------
 OpenMP BLAS3 based DFT computing Module                
 Release: version 1.0, May 2013, Q-Chem Inc. Pittsburgh 
 -------------------------------------------------------
 
   ------------------- Entering Geometric Direct Minimization ------------------
   GDM:         diagonal hessian shift is      0.000000000000000E+000
   GDM::PreWSS: input subspace size is                  1
   GDM::PreWSS: working subspace size set to            1
   GDM::PrEWSS: # of linearly dependent vectors =            0
   GDM::PrEWSS: Max dev from orthonormality =   2.220446049250313E-016
   GDM::BFGS:   lowest Hinv e-value     1.00000000000000     
   GDM::BFGS:   highest Hinv e-value    1.00000000000000     
   GDM::      : max scaling in EWCs is          1.41421356237309     
   GDM::      : max rotation in step is       -0.131260778709792     
   GDM::        grad.step =   -2.10283870196491     
   ------- Leaving GDM -- hopefully with a step in the right direction! --------
 
 ---------------------------------------
  Cycle       Energy        RMS Gradient
 ---------------------------------------
    1    -673.9928768731      1.88E+00  Gap = 0.00 eV  Descent step
 
   ------------------- Entering Geometric Direct Minimization ------------------
   GDM::trust : actual energy change is        -4.15112195260951     
   GDM::trust : predicted energy change was   -0.163350000000000     
   GDM::trust : updated trust radius is        0.330000000000000     
   GDM:         diagonal hessian shift is      0.000000000000000E+000
   GDM::PreWSS: input subspace size is                  2
   GDM::PreWSS: working subspace size set to            2
   GDM::PrEWSS: # of linearly dependent vectors =            0
   GDM::PrEWSS: Max dev from orthonormality =   2.114974861910923E-014
   GDM::BFGS:   lowest Hinv e-value    0.343937033815113     
   GDM::BFGS:   highest Hinv e-value    5.10420064563483     
   GDM::      : max scaling in EWCs is          1.41421356237309     
   GDM::      : max rotation in step is        0.158134818052839     
   GDM::        grad.step =   -2.14983944828448     
   ------- Leaving GDM -- hopefully with a step in the right direction! --------
 
    2    -678.1439988257      2.21E+00  Gap = 0.00 eV  Descent step
 
   ------------------- Entering Geometric Direct Minimization ------------------
   GDM::trust : actual energy change is        -4.20979377243748     
   GDM::trust : predicted energy change was   -0.126040903064284     
   GDM::trust : updated trust radius is        0.330000000000000     
   GDM:         diagonal hessian shift is      0.000000000000000E+000
   GDM::PreWSS: input subspace size is                  3
   GDM::PreWSS: working subspace size set to            3
   GDM::PrEWSS: # of linearly dependent vectors =            0
   GDM::PrEWSS: Max dev from orthonormality =   6.010469899564441E-013
   GDM::BFGS:   lowest Hinv e-value    0.290567374465590     
   GDM::BFGS:   highest Hinv e-value    2.14410791285672     
   GDM::      : max scaling in EWCs is          1.41421356237309     
   GDM::      : max rotation in step is        0.134402665506247     
   GDM::        grad.step =   -2.10592945979451     
   ------- Leaving GDM -- hopefully with a step in the right direction! --------
 
    3    -682.3537925981      1.84E+00  Gap = 0.00 eV  Descent step
 
   ------------------- Entering Geometric Direct Minimization ------------------
   GDM::trust : actual energy change is        -4.10907641562892     
   GDM::trust : predicted energy change was   -0.143150250303647     
   GDM::trust : updated trust radius is        0.330000000000000     
   GDM:         diagonal hessian shift is      0.000000000000000E+000
   GDM::PreWSS: input subspace size is                  4
   GDM::PreWSS: working subspace size set to            4
   GDM::PrEWSS: # of linearly dependent vectors =            0
   GDM::PrEWSS: Max dev from orthonormality =   1.475763955482989E-013
   GDM::BFGS:   lowest Hinv e-value    0.272526628132480     
   GDM::BFGS:   highest Hinv e-value    2.54204324783991     
   GDM::      : max scaling in EWCs is          1.41421356237309     
   GDM::      : max rotation in step is        0.128527893428974     
   GDM::        grad.step =   -1.99447536698836     
   ------- Leaving GDM -- hopefully with a step in the right direction! --------
 
    4    -686.4628690137      1.66E+00  Gap = 0.00 eV  Descent step
 
   ------------------- Entering Geometric Direct Minimization ------------------
   GDM::trust : actual energy change is        -3.85653664125539     
   GDM::trust : predicted energy change was   -0.145473824584060     
   GDM::trust : updated trust radius is        0.330000000000000     
   GDM:         diagonal hessian shift is      0.000000000000000E+000
   GDM::PreWSS: input subspace size is                  5
   GDM::PreWSS: working subspace size set to            5
   GDM::PrEWSS: # of linearly dependent vectors =            0
   GDM::PrEWSS: Max dev from orthonormality =   1.270990257484783E-012
   GDM::BFGS:   lowest Hinv e-value    0.261950463324425     
   GDM::BFGS:   highest Hinv e-value    2.42992476548136     
   GDM::      : max scaling in EWCs is          1.41421356237309     
   GDM::      : max rotation in step is        0.197176928058590     
   GDM::        grad.step =   -1.90511993783362     
   ------- Leaving GDM -- hopefully with a step in the right direction! --------
 
    5    -690.3194056550      2.51E+00  Gap = 0.00 eV  Descent step
 
   ------------------- Entering Geometric Direct Minimization ------------------
   GDM::trust : actual energy change is        -3.58293912839974     
   GDM::trust : predicted energy change was   -0.158557571859949     
   GDM::trust : updated trust radius is        0.330000000000000     
   GDM:         diagonal hessian shift is      0.000000000000000E+000
   GDM::PreWSS: input subspace size is                  6
   GDM::PreWSS: working subspace size set to            6
   GDM::PrEWSS: # of linearly dependent vectors =            0
   GDM::PrEWSS: Max dev from orthonormality =   1.424207973776959E-012
   GDM::BFGS:   lowest Hinv e-value    0.262197529554828     
   GDM::BFGS:   highest Hinv e-value    2.40521444880899     
   GDM::      : max scaling in EWCs is          2.82842712474619     
   GDM::      : max rotation in step is       -0.169952280627638     
   GDM::        grad.step =   -1.46805411944128     
   ------- Leaving GDM -- hopefully with a step in the right direction! --------
 
    6    -693.9023447834      1.30E+00  Gap = 0.00 eV  Descent step
 
   ------------------- Entering Geometric Direct Minimization ------------------
   GDM::trust : actual energy change is        -2.70116244992903     
   GDM::trust : predicted energy change was   -0.171705579857327     
   GDM::trust : updated trust radius is        0.330000000000000     
   GDM:         diagonal hessian shift is      0.000000000000000E+000
   GDM::PreWSS: input subspace size is                  7
   GDM::PreWSS: working subspace size set to            7
   GDM::PrEWSS: # of linearly dependent vectors =            0
   GDM::PrEWSS: Max dev from orthonormality =   3.967964845585925E-012
   GDM::BFGS:   lowest Hinv e-value    0.267286438998236     
   GDM::BFGS:   highest Hinv e-value    2.39687966357271     
   GDM::      : max scaling in EWCs is          2.82842712474619     
   GDM::      : max rotation in step is        0.195392758411704     
   GDM::        grad.step =   -1.12109068392896     
   ------- Leaving GDM -- hopefully with a step in the right direction! --------
 
    7    -696.6035072333      7.95E-01  Gap = 0.00 eV  Descent step
 
   ------------------- Entering Geometric Direct Minimization ------------------
   GDM::trust : actual energy change is        -2.11954726628323     
   GDM::trust : predicted energy change was   -0.167150543906837     
   GDM::trust : updated trust radius is        0.330000000000000     
   GDM:         diagonal hessian shift is      0.000000000000000E+000
   GDM::PreWSS: input subspace size is                  8
   GDM::PreWSS: working subspace size set to            8
   GDM::PrEWSS: # of linearly dependent vectors =            0
   GDM::PrEWSS: Max dev from orthonormality =   5.203129593844835E-012
   GDM::BFGS:   lowest Hinv e-value    0.245672329523389     
   GDM::BFGS:   highest Hinv e-value    2.51995347199620     
   GDM::      : max scaling in EWCs is          2.82842712474619     
   GDM::      : max rotation in step is       -0.165410273931214     
   GDM::        grad.step =   -1.01788620195133     
   ------- Leaving GDM -- hopefully with a step in the right direction! --------
 
    8    -698.7230544996      7.17E-01  Gap = 0.00 eV  Descent step
 
   ------------------- Entering Geometric Direct Minimization ------------------
   GDM::trust : actual energy change is        -1.92216710761761     
   GDM::trust : predicted energy change was   -0.146212054783951     
   GDM::trust : updated trust radius is        0.330000000000000     
   GDM:         diagonal hessian shift is      0.000000000000000E+000
   GDM::PreWSS: input subspace size is                  9
   GDM::PreWSS: working subspace size set to            9
   GDM::PrEWSS: # of linearly dependent vectors =            0
   GDM::PrEWSS: Max dev from orthonormality =   7.686601355416656E-012
   GDM::BFGS:   lowest Hinv e-value    0.197400395547486     
   GDM::BFGS:   highest Hinv e-value    2.60403702279452     
   GDM::      : max scaling in EWCs is          2.82842712474619     
   GDM::      : max rotation in step is        0.245041738491456     
   GDM::        grad.step =   -1.07485812953073     
   ------- Leaving GDM -- hopefully with a step in the right direction! --------
 
    9    -700.6452216072      1.20E+00  Gap = 0.00 eV  Descent step
 
   ------------------- Entering Geometric Direct Minimization ------------------
   GDM::trust : actual energy change is        -2.00649712237691     
   GDM::trust : predicted energy change was   -0.148569645625978     
   GDM::trust : updated trust radius is        0.330000000000000     
   GDM:         diagonal hessian shift is      0.000000000000000E+000
   GDM::PreWSS: input subspace size is                 10
   GDM::PreWSS: working subspace size set to           10
   GDM::PrEWSS: # of linearly dependent vectors =            0
   GDM::PrEWSS: Max dev from orthonormality =   5.699274385762010E-012
   GDM::BFGS:   lowest Hinv e-value    0.162225389517645     
   GDM::BFGS:   highest Hinv e-value    2.71025647403722     
   GDM::      : max scaling in EWCs is          2.82842712474619     
   GDM::      : max rotation in step is       -0.168452479746722     
   GDM::        grad.step =   -1.07851755136441     
   ------- Leaving GDM -- hopefully with a step in the right direction! --------
 
   10    -702.6517187296      1.04E+00  Gap = 0.00 eV  Descent step
 
   ------------------- Entering Geometric Direct Minimization ------------------
   GDM::trust : actual energy change is        -2.04065059467280     
   GDM::trust : predicted energy change was   -0.158817527756440     
   GDM::trust : updated trust radius is        0.330000000000000     
   GDM:         diagonal hessian shift is      0.000000000000000E+000
   GDM::PreWSS: input subspace size is                 11
   GDM::PreWSS: working subspace size set to           11
   GDM::PrEWSS: # of linearly dependent vectors =            0
   GDM::PrEWSS: Max dev from orthonormality =   3.358445466172810E-012
   GDM::BFGS:   lowest Hinv e-value    0.156264039964035     
   GDM::BFGS:   highest Hinv e-value    3.15644382600860     
   GDM::      : max scaling in EWCs is          2.82842712474619     
   GDM::      : max rotation in step is        0.309284668277625     
   GDM::        grad.step =   -1.15287033515124     
   ------- Leaving GDM -- hopefully with a step in the right direction! --------
 
   11    -704.6923693243      1.16E+00  Gap = 0.00 eV  Descent step
 
   ------------------- Entering Geometric Direct Minimization ------------------
   GDM::trust : actual energy change is        -2.07765807488647     
   GDM::trust : predicted energy change was   -0.162299506316649     
   GDM::trust : updated trust radius is        0.330000000000000     
   GDM:         diagonal hessian shift is      0.000000000000000E+000
   GDM::PreWSS: input subspace size is                 12
   GDM::PreWSS: working subspace size set to           12
   GDM::PrEWSS: # of linearly dependent vectors =            0
   GDM::PrEWSS: Max dev from orthonormality =   4.008182674652971E-012
   GDM::BFGS:   lowest Hinv e-value    0.150754185044523     
   GDM::BFGS:   highest Hinv e-value    3.80794359961101     
   GDM::      : max scaling in EWCs is          2.82842712474619     
   GDM::      : max rotation in step is        0.251291977751334     
   GDM::        grad.step =   -1.03281392162726     
   ------- Leaving GDM -- hopefully with a step in the right direction! --------
 
   12    -706.7700273992      9.86E-01  Gap = 0.00 eV  Descent step
 
   ------------------- Entering Geometric Direct Minimization ------------------
   GDM::trust : actual energy change is        -1.93808420399819     
   GDM::trust : predicted energy change was   -0.166498598108914     
   GDM::trust : updated trust radius is        0.330000000000000     
   GDM:         diagonal hessian shift is      0.000000000000000E+000
   GDM::PreWSS: input subspace size is                 13
   GDM::PreWSS: working subspace size set to           13
   GDM::PrEWSS: # of linearly dependent vectors =            0
   GDM::PrEWSS: Max dev from orthonormality =   3.306736828800894E-012
   GDM::BFGS:   lowest Hinv e-value    0.145455149463140     
   GDM::BFGS:   highest Hinv e-value    6.08742104337395     
   GDM::      : max scaling in EWCs is          2.82842712474619     
   GDM::      : max rotation in step is       -0.416074306003248     
   GDM::        grad.step =   -1.22476412613722     
   ------- Leaving GDM -- hopefully with a step in the right direction! --------
 
   13    -708.7081116032      1.97E+00  Gap = 0.00 eV  Descent step
 
   ------------------- Entering Geometric Direct Minimization ------------------
   GDM::trust : actual energy change is        -2.13955804960938     
   GDM::trust : predicted energy change was   -0.174486568206905     
   GDM::trust : updated trust radius is        0.330000000000000     
   GDM:         diagonal hessian shift is      0.000000000000000E+000
   GDM::PreWSS: input subspace size is                 14
   GDM::PreWSS: working subspace size set to           14
   GDM::PrEWSS: # of linearly dependent vectors =            0
   GDM::PrEWSS: Max dev from orthonormality =   5.009929103516608E-012
   GDM::BFGS:   lowest Hinv e-value    0.138773826678675     
   GDM::BFGS:   highest Hinv e-value    6.77847355120703     
   GDM::      : max scaling in EWCs is          2.82842712474619     
   GDM::      : max rotation in step is       -0.379457909129664     
   GDM::        grad.step =   -1.08593851497609     
   ------- Leaving GDM -- hopefully with a step in the right direction! --------
 
   14    -710.8476696528      1.56E+00  Gap = 0.00 eV  Descent step
 
   ------------------- Entering Geometric Direct Minimization ------------------
   GDM::trust : actual energy change is        -1.99081765006622     
   GDM::trust : predicted energy change was   -0.208750117777945     
   GDM::trust : updated trust radius is        0.330000000000000     
   GDM:         diagonal hessian shift is      0.000000000000000E+000
   GDM::PreWSS: input subspace size is                 15
   GDM::PreWSS: working subspace size set to           15
   GDM::PrEWSS: # of linearly dependent vectors =            0
   GDM::PrEWSS: Max dev from orthonormality =   3.898114470102243E-012
   GDM::BFGS:   lowest Hinv e-value    0.150641813605868     
   GDM::BFGS:   highest Hinv e-value    8.20961756145587     
   GDM::      : max scaling in EWCs is          2.82842712474619     
   GDM::      : max rotation in step is       -0.271310042368873     
   GDM::        grad.step =  -0.935282690746110     
   ------- Leaving GDM -- hopefully with a step in the right direction! --------
 
   15    -712.8384873028      8.24E-01  Gap = 0.00 eV  Descent step
 
   ------------------- Entering Geometric Direct Minimization ------------------
   GDM::trust : actual energy change is        -1.80604087500888     
   GDM::trust : predicted energy change was   -0.199244646744604     
   GDM::trust : updated trust radius is        0.330000000000000     
   GDM:         diagonal hessian shift is      0.000000000000000E+000
   GDM::PreWSS: input subspace size is                 16
   GDM::PreWSS: working subspace size set to           16
   GDM::PrEWSS: # of linearly dependent vectors =            0
   GDM::PrEWSS: Max dev from orthonormality =   2.804784182686149E-012
   GDM::BFGS:   lowest Hinv e-value    0.172168762568533     
   GDM::BFGS:   highest Hinv e-value    9.26504230267748     
   GDM::      : max scaling in EWCs is          2.82842712474619     
   GDM::      : max rotation in step is       -0.344998943184947     
   GDM::        grad.step =   -1.03270095683939     
   ------- Leaving GDM -- hopefully with a step in the right direction! --------
 
   16    -714.6445281778      1.16E+00  Gap = 0.00 eV  Descent step
 
   ------------------- Entering Geometric Direct Minimization ------------------
   GDM::trust : actual energy change is        -1.86872277452665     
   GDM::trust : predicted energy change was   -0.177639284733031     
   GDM::trust : updated trust radius is        0.330000000000000     
   GDM:         diagonal hessian shift is      0.000000000000000E+000
   GDM::PreWSS: input subspace size is                 17
   GDM::PreWSS: working subspace size set to           17
   GDM::PrEWSS: # of linearly dependent vectors =            0
   GDM::PrEWSS: Max dev from orthonormality =   4.621115989866809E-012
   GDM::BFGS:   lowest Hinv e-value    0.183350749960544     
   GDM::BFGS:   highest Hinv e-value    9.22465179132910     
   GDM::      : max scaling in EWCs is          2.82842712474619     
   GDM::      : max rotation in step is        0.214563158666736     
   GDM::        grad.step =  -0.990585338470722     
   ------- Leaving GDM -- hopefully with a step in the right direction! --------
 
   17    -716.5132509524      7.20E-01  Gap = 0.00 eV  Descent step
 
   ------------------- Entering Geometric Direct Minimization ------------------
   GDM::trust : actual energy change is        -1.89687218606230     
   GDM::trust : predicted energy change was   -0.189980471938335     
   GDM::trust : updated trust radius is        0.330000000000000     
   GDM:         diagonal hessian shift is      0.000000000000000E+000
   GDM::PreWSS: input subspace size is                 18
   GDM::PreWSS: working subspace size set to           18
   GDM::PrEWSS: # of linearly dependent vectors =            0
   GDM::PrEWSS: Max dev from orthonormality =   4.390286745259431E-012
   GDM::BFGS:   lowest Hinv e-value    0.221815874345146     
   GDM::BFGS:   highest Hinv e-value    9.87240159442605     
   GDM::      : max scaling in EWCs is          2.82842712474619     
   GDM::      : max rotation in step is       -0.366784643418766     
   GDM::        grad.step =   -1.01372994139400     
   ------- Leaving GDM -- hopefully with a step in the right direction! --------
 
   18    -718.4101231384      1.21E+00  Gap = 0.00 eV  Descent step
 
   ------------------- Entering Geometric Direct Minimization ------------------
   GDM::trust : actual energy change is        -1.88909417034176     
   GDM::trust : predicted energy change was   -0.168868483396456     
   GDM::trust : updated trust radius is        0.330000000000000     
   GDM:         diagonal hessian shift is      0.000000000000000E+000
   GDM::PreWSS: input subspace size is                 19
   GDM::PreWSS: working subspace size set to           18
   GDM::PrEWSS: # of linearly dependent vectors =            0
   GDM::PrEWSS: Max dev from orthonormality =   6.325405477181079E-012
   GDM::BFGS:   lowest Hinv e-value    0.192291417395727     
   GDM::BFGS:   highest Hinv e-value    10.9869442426075     
   GDM::      : max scaling in EWCs is          2.82842712474619     
   GDM::      : max rotation in step is       -0.206360466419672     
   GDM::        grad.step =  -0.932151753953271     
   ------- Leaving GDM -- hopefully with a step in the right direction! --------
 
   19    -720.2992173088      6.25E-01  Gap = 0.00 eV  Descent step
 
   ------------------- Entering Geometric Direct Minimization ------------------
   GDM::trust : actual energy change is        -1.79555100814673     
   GDM::trust : predicted energy change was   -0.192152790560229     
   GDM::trust : updated trust radius is        0.330000000000000     
   GDM:         diagonal hessian shift is      0.000000000000000E+000
   GDM::PreWSS: input subspace size is                 19
   GDM::PreWSS: working subspace size set to           18
   GDM::PrEWSS: # of linearly dependent vectors =            0
   GDM::PrEWSS: Max dev from orthonormality =   4.499782491063087E-012
   GDM::BFGS:   lowest Hinv e-value    0.230409863797954     
   GDM::BFGS:   highest Hinv e-value    12.5080904108917     
   GDM::      : max scaling in EWCs is          2.82842712474619     
   GDM::      : max rotation in step is        0.177980577142433     
   GDM::        grad.step =  -0.941437822815484     
   ------- Leaving GDM -- hopefully with a step in the right direction! --------
 
   20    -722.0947683169      8.36E-01  Gap = 0.00 eV  Descent step
 
   ------------------- Entering Geometric Direct Minimization ------------------
   GDM::trust : actual energy change is        -1.80607853884987     
   GDM::trust : predicted energy change was   -0.167202964867586     
   GDM::trust : updated trust radius is        0.330000000000000     
   GDM:         diagonal hessian shift is      0.000000000000000E+000
   GDM::PreWSS: input subspace size is                 19
   GDM::PreWSS: working subspace size set to           18
   GDM::PrEWSS: # of linearly dependent vectors =            0
   GDM::PrEWSS: Max dev from orthonormality =   1.675879053586460E-012
   GDM::BFGS:   lowest Hinv e-value    0.226464965501334     
   GDM::BFGS:   highest Hinv e-value    14.6614936902164     
   GDM::      : max scaling in EWCs is          2.82842712474619     
   GDM::      : max rotation in step is       -0.175755514171299     
   GDM::        grad.step =  -0.893096400267894     
   ------- Leaving GDM -- hopefully with a step in the right direction! --------
 
   21    -723.9008468558      7.44E-01  Gap = 0.00 eV  Descent step
 
   ------------------- Entering Geometric Direct Minimization ------------------
   GDM::trust : actual energy change is        -1.70232710266885     
   GDM::trust : predicted energy change was   -0.159115730706331     
   GDM::trust : updated trust radius is        0.330000000000000     
   GDM:         diagonal hessian shift is      0.000000000000000E+000
   GDM::PreWSS: input subspace size is                 19
   GDM::PreWSS: working subspace size set to           18
   GDM::PrEWSS: # of linearly dependent vectors =            0
   GDM::PrEWSS: Max dev from orthonormality =   1.330074939076553E-012
   GDM::BFGS:   lowest Hinv e-value    0.200498634146216     
   GDM::BFGS:   highest Hinv e-value    15.4274981635547     
   GDM::      : max scaling in EWCs is          2.82842712474619     
   GDM::      : max rotation in step is       -0.306391400889732     
   GDM::        grad.step =  -0.966598522653385     
   ------- Leaving GDM -- hopefully with a step in the right direction! --------
 
   22    -725.6031739584      9.62E-01  Gap = 0.00 eV  Descent step
 
   ------------------- Entering Geometric Direct Minimization ------------------
   GDM::trust : actual energy change is        -1.82423194684441     
   GDM::trust : predicted energy change was   -0.174775514045819     
   GDM::trust : updated trust radius is        0.330000000000000     
   GDM:         diagonal hessian shift is      0.000000000000000E+000
   GDM::PreWSS: input subspace size is                 19
   GDM::PreWSS: working subspace size set to           18
   GDM::PrEWSS: # of linearly dependent vectors =            0
   GDM::PrEWSS: Max dev from orthonormality =   7.320116734987892E-013
   GDM::BFGS:   lowest Hinv e-value    0.194892688157248     
   GDM::BFGS:   highest Hinv e-value    17.4880160070619     
   GDM::      : max scaling in EWCs is          2.82842712474619     
   GDM::      : max rotation in step is        0.253689161515198     
   GDM::        grad.step =  -0.950769447622958     
   ------- Leaving GDM -- hopefully with a step in the right direction! --------
 
   23    -727.4274059053      7.83E-01  Gap = 0.00 eV  Descent step
 
   ------------------- Entering Geometric Direct Minimization ------------------
   GDM::trust : actual energy change is        -1.79070439403540     
   GDM::trust : predicted energy change was   -0.176299084489981     
   GDM::trust : updated trust radius is        0.330000000000000     
   GDM:         diagonal hessian shift is      0.000000000000000E+000
   GDM::PreWSS: input subspace size is                 19
   GDM::PreWSS: working subspace size set to           18
   GDM::PrEWSS: # of linearly dependent vectors =            0
   GDM::PrEWSS: Max dev from orthonormality =   3.457720221256011E-013
   GDM::BFGS:   lowest Hinv e-value    0.183760712536845     
   GDM::BFGS:   highest Hinv e-value    18.1535095761621     
   GDM::      : max scaling in EWCs is          2.82842712474619     
   GDM::      : max rotation in step is        0.224168663914704     
   GDM::        grad.step =  -0.919041309319639     
   ------- Leaving GDM -- hopefully with a step in the right direction! --------
 
   24    -729.2181102993      7.94E-01  Gap = 186.17 eV  Descent step
 
   ------------------- Entering Geometric Direct Minimization ------------------
   GDM::trust : actual energy change is        -1.74315579270637     
   GDM::trust : predicted energy change was   -0.189667346376085     
   GDM::trust : updated trust radius is        0.330000000000000     
   GDM:         diagonal hessian shift is      0.000000000000000E+000
   GDM::PreWSS: input subspace size is                 19
   GDM::PreWSS: working subspace size set to           18
   GDM::PrEWSS: # of linearly dependent vectors =            0
   GDM::PrEWSS: Max dev from orthonormality =   2.427589379516704E-013
   GDM::BFGS:   lowest Hinv e-value    0.269217843656890     
   GDM::BFGS:   highest Hinv e-value    18.3931058193227     
   GDM::      : max scaling in EWCs is          2.82842712474619     
   GDM::      : max rotation in step is       -0.213888928820320     
   GDM::        grad.step =  -0.758655987804652     
   ------- Leaving GDM -- hopefully with a step in the right direction! --------
 
   25    -730.9612660920      5.27E-01  Gap = 186.17 eV  Descent step
 
   ------------------- Entering Geometric Direct Minimization ------------------
   GDM::trust : actual energy change is        -1.42825562566168     
   GDM::trust : predicted energy change was   -0.149882543650825     
   GDM::trust : updated trust radius is        0.330000000000000     
   GDM:         diagonal hessian shift is      0.000000000000000E+000
   GDM::PreWSS: input subspace size is                 19
   GDM::PreWSS: working subspace size set to           18
   GDM::PrEWSS: # of linearly dependent vectors =            0
   GDM::PrEWSS: Max dev from orthonormality =   3.044717256095453E-013
   GDM::BFGS:   lowest Hinv e-value    0.256577652550886     
   GDM::BFGS:   highest Hinv e-value    19.0646694576544     
   GDM::      : max scaling in EWCs is          2.82842712474619     
   GDM::      : max rotation in step is        0.223988609791647     
   GDM::        grad.step =  -0.637211287780586     
   ------- Leaving GDM -- hopefully with a step in the right direction! --------
 
   26    -732.3895217177      5.23E-01  Gap = 186.17 eV  Descent step
 
   ------------------- Entering Geometric Direct Minimization ------------------
   GDM::trust : actual energy change is        -1.18006946171420     
   GDM::trust : predicted energy change was   -0.148541306132739     
   GDM::trust : updated trust radius is        0.330000000000000     
   GDM:         diagonal hessian shift is      0.000000000000000E+000
   GDM::PreWSS: input subspace size is                 19
   GDM::PreWSS: working subspace size set to           18
   GDM::PrEWSS: # of linearly dependent vectors =            0
   GDM::PrEWSS: Max dev from orthonormality =   2.253093545068197E-013
   GDM::BFGS:   lowest Hinv e-value    0.248025069827751     
   GDM::BFGS:   highest Hinv e-value    19.4523661690041     
   GDM::      : max scaling in EWCs is          2.82842712474619     
   GDM::      : max rotation in step is        0.337300518458775     
   GDM::        grad.step =  -0.572395658188020     
   ------- Leaving GDM -- hopefully with a step in the right direction! --------
 
   27    -733.5695911794      6.66E-01  Gap = 186.17 eV  Descent step
 
   ------------------- Entering Geometric Direct Minimization ------------------
   GDM::trust : actual energy change is       -0.998743839933695     
   GDM::trust : predicted energy change was   -0.150213305177275     
   GDM::trust : updated trust radius is        0.330000000000000     
   GDM:         diagonal hessian shift is      0.000000000000000E+000
   GDM::PreWSS: input subspace size is                 19
   GDM::PreWSS: working subspace size set to           18
   GDM::PrEWSS: # of linearly dependent vectors =            0
   GDM::PrEWSS: Max dev from orthonormality =   2.968814430404088E-013
   GDM::BFGS:   lowest Hinv e-value    0.254268256588798     
   GDM::BFGS:   highest Hinv e-value    19.4230588711571     
   GDM::      : max scaling in EWCs is          2.82842712474619     
   GDM::      : max rotation in step is        0.223334451392325     
   GDM::        grad.step =  -0.449038641951495     
   ------- Leaving GDM -- hopefully with a step in the right direction! --------
 
   28    -734.5683350193      3.26E-01  Gap = 0.00 eV  Descent step
 
   ------------------- Entering Geometric Direct Minimization ------------------
   GDM::trust : actual energy change is       -0.735814403347149     
   GDM::trust : predicted energy change was   -0.149174792831526     
   GDM::trust : updated trust radius is        0.330000000000000     
   GDM:         diagonal hessian shift is      0.000000000000000E+000
   GDM::PreWSS: input subspace size is                 19
   GDM::PreWSS: working subspace size set to           18
   GDM::PrEWSS: # of linearly dependent vectors =            0
   GDM::PrEWSS: Max dev from orthonormality =   2.849318003761425E-013
   GDM::BFGS:   lowest Hinv e-value    0.127601216089721     
   GDM::BFGS:   highest Hinv e-value    19.5665567581806     
   GDM::      : max scaling in EWCs is          2.82842712474619     
   GDM::      : max rotation in step is        0.219447336045293     
   GDM::        grad.step =  -0.438494304801419     
   ------- Leaving GDM -- hopefully with a step in the right direction! --------
 
   29    -735.3041494227      3.54E-01  Gap = 0.00 eV  Descent step
 
   ------------------- Entering Geometric Direct Minimization ------------------
   GDM::trust : actual energy change is       -0.617463552638128     
   GDM::trust : predicted energy change was   -0.256842655942996     
   GDM::trust : updated trust radius is        0.330000000000000     
   GDM:         diagonal hessian shift is      0.000000000000000E+000
   GDM::PreWSS: input subspace size is                 19
   GDM::PreWSS: working subspace size set to           18
   GDM::PrEWSS: # of linearly dependent vectors =            0
   GDM::PrEWSS: Max dev from orthonormality =   1.839917107560041E-013
   GDM::BFGS:   lowest Hinv e-value    7.938146412382271E-002
   GDM::BFGS:   highest Hinv e-value    21.0007085711912     
   GDM::      : max scaling in EWCs is          2.82842712474619     
   GDM::      : max rotation in step is        0.242898207075867     
   GDM::        grad.step =  -0.491473923412361     
   ------- Leaving GDM -- hopefully with a step in the right direction! --------
 
   30    -735.9216129753      3.88E-01  Gap = 0.00 eV  Descent step
 
   ------------------- Entering Geometric Direct Minimization ------------------
   GDM::trust : actual energy change is       -0.388869848697141     
   GDM::trust : predicted energy change was   -0.394344725676568     
   GDM::trust : updated trust radius is        0.330000000000000     
   GDM:         diagonal hessian shift is      0.000000000000000E+000
   GDM::PreWSS: input subspace size is                 19
   GDM::PreWSS: working subspace size set to           18
   GDM::PrEWSS: # of linearly dependent vectors =            0
   GDM::PrEWSS: Max dev from orthonormality =   3.848796281680222E-013
   GDM::BFGS:   lowest Hinv e-value    0.105457490304637     
   GDM::BFGS:   highest Hinv e-value    21.1644341308548     
   GDM::      : max scaling in EWCs is          2.82842712474619     
   GDM::      : max rotation in step is        0.221640914111367     
   GDM::        grad.step =  -0.554113170343085     
   ------- Leaving GDM -- hopefully with a step in the right direction! --------
 
   31    -736.3104828240      4.26E-01  Gap = 0.00 eV  Descent step
 
   ------------------- Entering Geometric Direct Minimization ------------------
   GDM::trust : actual energy change is       -0.552210418076243     
   GDM::trust : predicted energy change was   -0.432545774436548     
   GDM::trust : updated trust radius is        0.330000000000000     
   GDM:         diagonal hessian shift is      0.000000000000000E+000
   GDM::PreWSS: input subspace size is                 19
   GDM::PreWSS: working subspace size set to           18
   GDM::PrEWSS: # of linearly dependent vectors =            0
   GDM::PrEWSS: Max dev from orthonormality =   2.871327307862881E-013
   GDM::BFGS:   lowest Hinv e-value    7.615524895233150E-002
   GDM::BFGS:   highest Hinv e-value    19.7195925967487     
   GDM::      : max scaling in EWCs is          2.82842712474619     
   GDM::      : max rotation in step is        0.243678794207854     
   GDM::        grad.step =  -0.533212135807044     
   ------- Leaving GDM -- hopefully with a step in the right direction! --------
 
   32    -736.8626932421      4.31E-01  Gap = 0.00 eV  Descent step
 
   ------------------- Entering Geometric Direct Minimization ------------------
   GDM::trust : actual energy change is       -0.415144253349922     
   GDM::trust : predicted energy change was   -0.417631599563004     
   GDM::trust : updated trust radius is        0.330000000000000     
   GDM:         diagonal hessian shift is      0.000000000000000E+000
   GDM::PreWSS: input subspace size is                 19
   GDM::PreWSS: working subspace size set to           18
   GDM::PrEWSS: # of linearly dependent vectors =            0
   GDM::PrEWSS: Max dev from orthonormality =   1.749364542114051E-013
   GDM::BFGS:   lowest Hinv e-value    0.101651843881681     
   GDM::BFGS:   highest Hinv e-value    20.6273708366099     
   GDM::      : max scaling in EWCs is          2.82842712474619     
   GDM::      : max rotation in step is       -0.219985455555387     
   GDM::        grad.step =  -0.639681670619126     
   ------- Leaving GDM -- hopefully with a step in the right direction! --------
 
   33    -737.2778374954      7.56E-01  Gap = 0.00 eV  Descent step
 
   ------------------- Entering Geometric Direct Minimization ------------------
   GDM::trust : actual energy change is       -0.891945379512549     
   GDM::trust : predicted energy change was   -0.388970868127798     
   GDM::trust : updated trust radius is        0.330000000000000     
   GDM:         diagonal hessian shift is      0.000000000000000E+000
   GDM::PreWSS: input subspace size is                 19
   GDM::PreWSS: working subspace size set to           18
   GDM::PrEWSS: # of linearly dependent vectors =            0
   GDM::PrEWSS: Max dev from orthonormality =   1.656747655731650E-013
   GDM::BFGS:   lowest Hinv e-value    8.904060522035305E-002
   GDM::BFGS:   highest Hinv e-value    18.3284752198210     
   GDM::      : max scaling in EWCs is          2.82842712474619     
   GDM::      : max rotation in step is       -0.359988224341351     
   GDM::        grad.step =  -0.751160662057977     
   ------- Leaving GDM -- hopefully with a step in the right direction! --------
 
   34    -738.1697828750      1.22E+00  Gap = 0.00 eV  Descent step
 
   ------------------- Entering Geometric Direct Minimization ------------------
   GDM::trust : actual energy change is        -1.16185484088760     
   GDM::trust : predicted energy change was   -0.230601315605766     
   GDM::trust : updated trust radius is        0.330000000000000     
   GDM:         diagonal hessian shift is      0.000000000000000E+000
   GDM::PreWSS: input subspace size is                 19
   GDM::PreWSS: working subspace size set to           18
   GDM::PrEWSS: # of linearly dependent vectors =            0
   GDM::PrEWSS: Max dev from orthonormality =   1.065120214249760E-013
   GDM::BFGS:   lowest Hinv e-value    0.107146714712924     
   GDM::BFGS:   highest Hinv e-value    20.9388326307970     
   GDM::      : max scaling in EWCs is          2.82842712474619     
   GDM::      : max rotation in step is       -0.322315284354180     
   GDM::        grad.step =  -0.508943536942513     
   ------- Leaving GDM -- hopefully with a step in the right direction! --------
 
   35    -739.3316377158      5.33E-01  Gap = 0.00 eV  Descent step
 
   ------------------- Entering Geometric Direct Minimization ------------------
   GDM::trust : actual energy change is       -0.931151202073579     
   GDM::trust : predicted energy change was   -0.195391366979956     
   GDM::trust : updated trust radius is        0.330000000000000     
   GDM:         diagonal hessian shift is      0.000000000000000E+000
   GDM::PreWSS: input subspace size is                 19
   GDM::PreWSS: working subspace size set to           18
   GDM::PrEWSS: # of linearly dependent vectors =            0
   GDM::PrEWSS: Max dev from orthonormality =   2.106440022409117E-013
   GDM::BFGS:   lowest Hinv e-value    7.899448408908101E-002
   GDM::BFGS:   highest Hinv e-value    18.4715523781218     
   GDM::      : max scaling in EWCs is          2.82842712474619     
   GDM::      : max rotation in step is        0.282056637472095     
   GDM::        grad.step =  -0.582072212364731     
   ------- Leaving GDM -- hopefully with a step in the right direction! --------
 
   36    -740.2627889179      8.86E-01  Gap = 0.00 eV  Descent step
 
   ------------------- Entering Geometric Direct Minimization ------------------
   GDM::trust : actual energy change is       -0.933086837038672     
   GDM::trust : predicted energy change was   -0.250652631904045     
   GDM::trust : updated trust radius is        0.330000000000000     
   GDM:         diagonal hessian shift is      0.000000000000000E+000
   GDM::PreWSS: input subspace size is                 19
   GDM::PreWSS: working subspace size set to           18
   GDM::PrEWSS: # of linearly dependent vectors =            0
   GDM::PrEWSS: Max dev from orthonormality =   1.949603672946054E-013
   GDM::BFGS:   lowest Hinv e-value    8.766388777001939E-002
   GDM::BFGS:   highest Hinv e-value    21.7960808249650     
   GDM::      : max scaling in EWCs is          2.82842712474619     
   GDM::      : max rotation in step is       -0.407469783028198     
   GDM::        grad.step =  -0.736235997528104     
   ------- Leaving GDM -- hopefully with a step in the right direction! --------
 
   37    -741.1958757550      9.74E-01  Gap = 0.00 eV  Descent step
 
   ------------------- Entering Geometric Direct Minimization ------------------
   GDM::trust : actual energy change is       -0.985007311803543     
   GDM::trust : predicted energy change was   -0.219049927069256     
   GDM::trust : updated trust radius is        0.330000000000000     
   GDM:         diagonal hessian shift is      0.000000000000000E+000
   GDM::PreWSS: input subspace size is                 19
   GDM::PreWSS: working subspace size set to           18
   GDM::PrEWSS: # of linearly dependent vectors =            0
   GDM::PrEWSS: Max dev from orthonormality =   1.600143628710526E-013
   GDM::BFGS:   lowest Hinv e-value    0.100169933862888     
   GDM::BFGS:   highest Hinv e-value    23.0676842055878     
   GDM::      : max scaling in EWCs is          2.82842712474619     
   GDM::      : max rotation in step is       -0.421227341201301     
   GDM::        grad.step =  -0.587531750729444     
   ------- Leaving GDM -- hopefully with a step in the right direction! --------
 
   38    -742.1808830668      8.34E-01  Gap = 0.00 eV  Descent step
 
   ------------------- Entering Geometric Direct Minimization ------------------
   GDM::trust : actual energy change is       -0.547502158142493     
   GDM::trust : predicted energy change was   -0.280641167261655     
   GDM::trust : updated trust radius is        0.330000000000000     
   GDM:         diagonal hessian shift is      0.000000000000000E+000
   GDM::PreWSS: input subspace size is                 19
   GDM::PreWSS: working subspace size set to           18
   GDM::PrEWSS: # of linearly dependent vectors =            0
   GDM::PrEWSS: Max dev from orthonormality =   5.110495360227674E-014
   GDM::BFGS:   lowest Hinv e-value    5.133103046282503E-002
   GDM::BFGS:   highest Hinv e-value    20.6133011205098     
   GDM::      : max scaling in EWCs is          2.82842712474619     
   GDM::      : max rotation in step is       -0.706980769915729     
   GDM::        grad.step =  -0.589138334241080     
   ------- Leaving GDM -- hopefully with a step in the right direction! --------
 
   39    -742.7283852249      1.35E+00  Gap = 0.00 eV  Descent step
 
   ------------------- Entering Geometric Direct Minimization ------------------
   GDM::trust : actual energy change is       -1.748259767873606E-002
   GDM::trust : predicted energy change was   -0.841944002979489     
   GDM::trust : updated trust radius is        0.330000000000000     
   GDM:         diagonal hessian shift is      0.000000000000000E+000
   GDM::PreWSS: input subspace size is                 19
   GDM::PreWSS: working subspace size set to           18
   GDM::PrEWSS: # of linearly dependent vectors =            0
   GDM::PrEWSS: Max dev from orthonormality =   2.809558141692037E-014
   GDM::BFGS:   lowest Hinv e-value    0.126943684838119     
   GDM::BFGS:   highest Hinv e-value    21.6646297254831     
   GDM::      : max scaling in EWCs is          2.82842712474619     
   GDM::      : max rotation in step is        0.132452369734952     
   GDM::        grad.step =  -0.479911059717813     
   ------- Leaving GDM -- hopefully with a step in the right direction! --------
 
   40    -742.7458678226      4.39E-01  Gap = 25.66 eV  Descent step
 
   ------------------- Entering Geometric Direct Minimization ------------------
   GDM::trust : actual energy change is       -0.612045961788112     
   GDM::trust : predicted energy change was   -0.351072807970618     
   GDM::trust : updated trust radius is        0.330000000000000     
   GDM:         diagonal hessian shift is      0.000000000000000E+000
   GDM::PreWSS: input subspace size is                 19
   GDM::PreWSS: working subspace size set to           18
   GDM::PrEWSS: # of linearly dependent vectors =            0
   GDM::PrEWSS: Max dev from orthonormality =   5.638545186315014E-014
   GDM::BFGS:   lowest Hinv e-value    8.792169624520181E-002
   GDM::BFGS:   highest Hinv e-value    19.9907335962589     
   GDM::      : max scaling in EWCs is          2.82842712474619     
   GDM::      : max rotation in step is       -0.187853402540533     
   GDM::        grad.step =  -0.317799263900483     
   ------- Leaving GDM -- hopefully with a step in the right direction! --------
 
   41    -743.3579137844      3.11E-01  Gap = 25.66 eV  Descent step
 
   ------------------- Entering Geometric Direct Minimization ------------------
   GDM::trust : actual energy change is       -0.436294055759504     
   GDM::trust : predicted energy change was   -0.202144528193121     
   GDM::trust : updated trust radius is        0.330000000000000     
   GDM:         diagonal hessian shift is      0.000000000000000E+000
   GDM::PreWSS: input subspace size is                 19
   GDM::PreWSS: working subspace size set to           18
   GDM::PrEWSS: # of linearly dependent vectors =            0
   GDM::PrEWSS: Max dev from orthonormality =   3.765737721650453E-014
   GDM::BFGS:   lowest Hinv e-value    6.489006676764840E-002
   GDM::BFGS:   highest Hinv e-value    13.3331937579293     
   GDM::      : max scaling in EWCs is          2.82842712474619     
   GDM::      : max rotation in step is       -0.356518315623354     
   GDM::        grad.step =  -0.435338771496581     
   ------- Leaving GDM -- hopefully with a step in the right direction! --------
 
   42    -743.7942078401      5.04E-01  Gap = 25.66 eV  Descent step
 
   ------------------- Entering Geometric Direct Minimization ------------------
   GDM::trust : actual energy change is       -0.284826134731361     
   GDM::trust : predicted energy change was   -0.557969411684928     
   GDM::trust : updated trust radius is        0.330000000000000     
   GDM:         diagonal hessian shift is      0.000000000000000E+000
   GDM::PreWSS: input subspace size is                 19
   GDM::PreWSS: working subspace size set to           18
   GDM::PrEWSS: # of linearly dependent vectors =            0
   GDM::PrEWSS: Max dev from orthonormality =   2.780241314948029E-014
   GDM::BFGS:   lowest Hinv e-value    0.114358021212737     
   GDM::BFGS:   highest Hinv e-value    9.05597944103096     
   GDM::      : max scaling in EWCs is          2.82842712474619     
   GDM::      : max rotation in step is       -0.319380566430153     
   GDM::        grad.step =  -0.450946903544401     
   ------- Leaving GDM -- hopefully with a step in the right direction! --------
 
   43    -744.0790339749      6.50E-01  Gap = 25.66 eV  Descent step
 
   ------------------- Entering Geometric Direct Minimization ------------------
   GDM::trust : actual energy change is       -0.452605773225173     
   GDM::trust : predicted energy change was   -0.339562907589969     
   GDM::trust : updated trust radius is        0.330000000000000     
   GDM:         diagonal hessian shift is      0.000000000000000E+000
   GDM::PreWSS: input subspace size is                 19
   GDM::PreWSS: working subspace size set to           18
   GDM::PrEWSS: # of linearly dependent vectors =            0
   GDM::PrEWSS: Max dev from orthonormality =   1.824235207337210E-014
   GDM::BFGS:   lowest Hinv e-value    0.161803969377546     
   GDM::BFGS:   highest Hinv e-value    11.2743398880721     
   GDM::      : max scaling in EWCs is          2.82842712474619     
   GDM::      : max rotation in step is       -0.222208521312026     
   GDM::        grad.step =  -0.209016639631001     
   ------- Leaving GDM -- hopefully with a step in the right direction! --------
 
   44    -744.5316397481      1.51E-01  Gap = 25.66 eV  Descent step
 
   ------------------- Entering Geometric Direct Minimization ------------------
   GDM::trust : actual energy change is       -0.175437061055959     
   GDM::trust : predicted energy change was   -0.185826516795827     
   GDM::trust : updated trust radius is        0.330000000000000     
   GDM:         diagonal hessian shift is      0.000000000000000E+000
   GDM::PreWSS: input subspace size is                 19
   GDM::PreWSS: working subspace size set to           18
   GDM::PrEWSS: # of linearly dependent vectors =            0
   GDM::PrEWSS: Max dev from orthonormality =   2.087913175685685E-014
   GDM::BFGS:   lowest Hinv e-value    0.140326413902107     
   GDM::BFGS:   highest Hinv e-value    11.4138198116833     
   GDM::      : max scaling in EWCs is          2.82842712474619     
   GDM::      : max rotation in step is       -0.321613883079969     
   GDM::        grad.step =  -0.250598271474995     
   ------- Leaving GDM -- hopefully with a step in the right direction! --------
 
   45    -744.7070768091      2.97E-01  Gap = 25.66 eV  Descent step
 
   ------------------- Entering Geometric Direct Minimization ------------------
   GDM::trust : actual energy change is        6.679602349947800E-002
   GDM::trust : predicted energy change was   -0.376595636097271     
   GDM::trust : updated trust radius is        0.108900000000000     
   GDM::search:  On step            1 .  The current bracket is:
       left   : x =  0.0000E+00, e =      -744.7070768091, g = -0.3855E+00
       current: x =  0.6501E+00, e =      -744.6402807856, g =  0.4599E+00
       right  : x =  0.1000E+04, e =      1000.0000000000, g =  0.1000E+04
       next   : x =  0.2566E+00
   GDM::      : max rotation in step is       -0.126964921012023     
   ------- Leaving GDM -- hopefully with a step in the right direction! --------
 
   46    -744.6402807856      1.35E-01  Gap = 25.66 eV  Line search: overstep
 
   ------------------- Entering Geometric Direct Minimization ------------------
   GDM::trust : actual energy change is       -0.109980294395541     
   GDM::trust : predicted energy change was   -0.376595636097271     
   GDM::trust : updated trust radius is        0.108900000000000     
   GDM:         diagonal hessian shift is      0.000000000000000E+000
   GDM::PreWSS: input subspace size is                 19
   GDM::PreWSS: working subspace size set to           18
   GDM::PrEWSS: # of linearly dependent vectors =            0
   GDM::PrEWSS: Max dev from orthonormality =   2.642677743303068E-014
   GDM::BFGS:   lowest Hinv e-value    0.118841717622726     
   GDM::BFGS:   highest Hinv e-value    11.6444564882839     
   GDM::      : max scaling in EWCs is          2.82842712474619     
   GDM::      : max rotation in step is       -0.164501228745114     
   GDM::        grad.step =  -4.589456179857407E-002
   ------- Leaving GDM -- hopefully with a step in the right direction! --------
 
   47    -744.8170571035      2.25E-01  Gap = 25.66 eV  Descent step
 
   ------------------- Entering Geometric Direct Minimization ------------------
   GDM::trust : actual energy change is       -5.955224757758515E-002
   GDM::trust : predicted energy change was   -2.087333432030888E-002
   GDM::trust : updated trust radius is        0.330000000000000     
   GDM:         diagonal hessian shift is      0.000000000000000E+000
   GDM::PreWSS: input subspace size is                 19
   GDM::PreWSS: working subspace size set to           18
   GDM::PrEWSS: # of linearly dependent vectors =            0
   GDM::PrEWSS: Max dev from orthonormality =   1.438432706279968E-014
   GDM::BFGS:   lowest Hinv e-value    8.107460380616138E-002
   GDM::BFGS:   highest Hinv e-value    13.8752156492010     
   GDM::      : max scaling in EWCs is          2.82842712474619     
   GDM::      : max rotation in step is       -0.345295830663876     
   GDM::        grad.step =  -0.147690526401436     
   ------- Leaving GDM -- hopefully with a step in the right direction! --------
 
   48    -744.8766093511      1.66E-01  Gap = 25.66 eV  Descent step
 
   ------------------- Entering Geometric Direct Minimization ------------------
   GDM::trust : actual energy change is        0.277326814024036     
   GDM::trust : predicted energy change was   -0.475025352325136     
   GDM::trust : updated trust radius is        0.108900000000000     
   GDM::search:  On step            1 .  The current bracket is:
       left   : x =  0.0000E+00, e =      -744.8766093511, g = -0.2363E+00
       current: x =  0.6249E+00, e =      -744.5992825371, g =  0.6110E+00
       right  : x =  0.1000E+04, e =      1000.0000000000, g =  0.1000E+04
       next   : x =  0.1086E+00
   GDM::      : max rotation in step is       -5.999393218158763E-002
   ------- Leaving GDM -- hopefully with a step in the right direction! --------
 
   49    -744.5992825371      4.04E-01  Gap = 25.66 eV  Line search: overstep
 
   ------------------- Entering Geometric Direct Minimization ------------------
   GDM::trust : actual energy change is       -3.344392981557576E-002
   GDM::trust : predicted energy change was   -0.475025352325136     
   GDM::trust : updated trust radius is        0.108900000000000     
   GDM:         diagonal hessian shift is      0.000000000000000E+000
   GDM::PreWSS: input subspace size is                 19
   GDM::PreWSS: working subspace size set to           18
   GDM::PrEWSS: # of linearly dependent vectors =            0
   GDM::PrEWSS: Max dev from orthonormality =   2.439715096613781E-014
   GDM::BFGS:   lowest Hinv e-value    7.849536196537173E-002
   GDM::BFGS:   highest Hinv e-value    12.4162421535764     
   GDM::      : max scaling in EWCs is          2.82842712474619     
   GDM::      : max rotation in step is       -0.185708924254369     
   GDM::        grad.step =  -4.037269848676185E-002
   ------- Leaving GDM -- hopefully with a step in the right direction! --------
 
   50    -744.9100532809      2.24E-01  Gap = 25.66 eV  Descent step
 
   ------------------- Entering Geometric Direct Minimization ------------------
   GDM::trust : actual energy change is       -4.435736542188806E-002
   GDM::trust : predicted energy change was   -2.791137988297576E-002
   GDM::trust : updated trust radius is        0.330000000000000     
   GDM:         diagonal hessian shift is      0.000000000000000E+000
   GDM::PreWSS: input subspace size is                 19
   GDM::PreWSS: working subspace size set to           18
   GDM::PrEWSS: # of linearly dependent vectors =            0
   GDM::PrEWSS: Max dev from orthonormality =   4.841266276756073E-014
   GDM::BFGS:   lowest Hinv e-value    7.141172861191433E-002
   GDM::BFGS:   highest Hinv e-value    14.4639815184914     
   GDM::      : max scaling in EWCs is          2.82842712474619     
   GDM::      : max rotation in step is       -0.492106745248627     
   GDM::        grad.step =  -0.188093155076031     
   ------- Leaving GDM -- hopefully with a step in the right direction! --------
 
   51    -744.9544106464      3.01E-01  Gap = 25.66 eV  Descent step
 
   ------------------- Entering Geometric Direct Minimization ------------------
   GDM::trust : actual energy change is        0.805473504071870     
   GDM::trust : predicted energy change was   -0.734798752484886     
   GDM::trust : updated trust radius is        0.108900000000000     
   GDM::search:  On step            1 .  The current bracket is:
       left   : x =  0.0000E+00, e =      -744.9544106464, g = -0.2426E+00
       current: x =  0.7755E+00, e =      -744.1489371423, g =  0.1073E+01
       right  : x =  0.1000E+04, e =      1000.0000000000, g =  0.1000E+04
       next   : x =  0.7755E-01
   GDM::      : max rotation in step is       -4.921067452486273E-002
   ------- Leaving GDM -- hopefully with a step in the right direction! --------
 
   52    -744.1489371423      5.74E-01  Gap = 25.66 eV  Line search: overstep
 
   ------------------- Entering Geometric Direct Minimization ------------------
   GDM::trust : actual energy change is       -2.524820748760703E-002
   GDM::trust : predicted energy change was   -0.734798752484886     
   GDM::trust : updated trust radius is        0.108900000000000     
   GDM:         diagonal hessian shift is      0.000000000000000E+000
   GDM::PreWSS: input subspace size is                 19
   GDM::PreWSS: working subspace size set to           18
   GDM::PrEWSS: # of linearly dependent vectors =            0
   GDM::PrEWSS: Max dev from orthonormality =   7.144285163462882E-014
   GDM::BFGS:   lowest Hinv e-value    6.957839084595965E-002
   GDM::BFGS:   highest Hinv e-value    12.9065118622118     
   GDM::      : max scaling in EWCs is          2.82842712474619     
   GDM::      : max rotation in step is       -0.126679738034833     
   GDM::        grad.step =  -3.112765805738633E-002
   ------- Leaving GDM -- hopefully with a step in the right direction! --------
 
   53    -744.9796588538      1.18E-01  Gap = 94.53 eV  Descent step
 
   ------------------- Entering Geometric Direct Minimization ------------------
   GDM::trust : actual energy change is       -4.619254970430120E-002
   GDM::trust : predicted energy change was   -1.971201786180038E-002
   GDM::trust : updated trust radius is        0.330000000000000     
   GDM:         diagonal hessian shift is      0.000000000000000E+000
   GDM::PreWSS: input subspace size is                 19
   GDM::PreWSS: working subspace size set to           18
   GDM::PrEWSS: # of linearly dependent vectors =            0
   GDM::PrEWSS: Max dev from orthonormality =   5.184672136060442E-013
   GDM::BFGS:   lowest Hinv e-value    6.099966405240629E-002
   GDM::BFGS:   highest Hinv e-value    19.0578139438935     
   GDM::      : max scaling in EWCs is          2.82842712474619     
   GDM::      : max rotation in step is       -0.719010146917062     
   GDM::        grad.step =  -0.143765274116759     
   ------- Leaving GDM -- hopefully with a step in the right direction! --------
 
   54    -745.0258514035      3.36E-01  Gap = 25.66 eV  Descent step
 
   ------------------- Entering Geometric Direct Minimization ------------------
   GDM::trust : actual energy change is        0.568873275252713     
   GDM::trust : predicted energy change was   -0.739912632543727     
   GDM::trust : updated trust radius is        0.108900000000000     
   GDM::search:  On step            1 .  The current bracket is:
       left   : x =  0.0000E+00, e =      -745.0258514035, g = -0.1595E+00
       current: x =  0.9012E+00, e =      -744.4569781283, g =  0.4150E+00
       right  : x =  0.1000E+04, e =      1000.0000000000, g =  0.1000E+04
       next   : x =  0.9090E-01
   GDM::      : max rotation in step is       -7.252532925402431E-002
   ------- Leaving GDM -- hopefully with a step in the right direction! --------
 
   55    -744.4569781283      2.98E-01  Gap = 25.66 eV  Line search: overstep
 
   ------------------- Entering Geometric Direct Minimization ------------------
   GDM::trust : actual energy change is       -1.745030325582775E-002
   GDM::trust : predicted energy change was   -0.739912632543727     
   GDM::trust : updated trust radius is        0.108900000000000     
   GDM:         diagonal hessian shift is      0.000000000000000E+000
   GDM::PreWSS: input subspace size is                 19
   GDM::PreWSS: working subspace size set to           18
   GDM::PrEWSS: # of linearly dependent vectors =            0
   GDM::PrEWSS: Max dev from orthonormality =   3.714667462517696E-013
   GDM::BFGS:   lowest Hinv e-value    6.323947286371058E-002
   GDM::BFGS:   highest Hinv e-value    23.5569605980589     
   GDM::      : max scaling in EWCs is          2.82842712474619     
   GDM::      : max rotation in step is       -0.115020725860231     
   GDM::        grad.step =  -2.660825057189610E-002
   ------- Leaving GDM -- hopefully with a step in the right direction! --------
 
   56    -745.0433017068      9.20E-02  Gap = 25.66 eV  Descent step
 
   ------------------- Entering Geometric Direct Minimization ------------------
   GDM::trust : actual energy change is       -3.747267008361632E-002
   GDM::trust : predicted energy change was   -2.113225104154701E-002
   GDM::trust : updated trust radius is        0.330000000000000     
   GDM:         diagonal hessian shift is      0.000000000000000E+000
   GDM::PreWSS: input subspace size is                 19
   GDM::PreWSS: working subspace size set to           18
   GDM::PrEWSS: # of linearly dependent vectors =            0
   GDM::PrEWSS: Max dev from orthonormality =   4.080139004436489E-013
   GDM::BFGS:   lowest Hinv e-value    6.139945813721617E-002
   GDM::BFGS:   highest Hinv e-value    7.05167156121629     
   GDM::      : max scaling in EWCs is          2.82842712474619     
   GDM::      : max rotation in step is       -0.714491235842819     
   GDM::        grad.step =  -0.148728196752319     
   ------- Leaving GDM -- hopefully with a step in the right direction! --------
 
   57    -745.0807743769      3.45E-01  Gap = 25.66 eV  Descent step
 
   ------------------- Entering Geometric Direct Minimization ------------------
   GDM::trust : actual energy change is        0.456290554380189     
   GDM::trust : predicted energy change was   -0.810760615526620     
   GDM::trust : updated trust radius is        0.108900000000000     
   GDM::search:  On step            1 .  The current bracket is:
       left   : x =  0.0000E+00, e =      -745.0807743769, g = -0.1671E+00
       current: x =  0.8900E+00, e =      -744.6244838225, g =  0.2755E+00
       right  : x =  0.1000E+04, e =      1000.0000000000, g =  0.1000E+04
       next   : x =  0.1094E+00
   GDM::      : max rotation in step is       -8.781958650316687E-002
   ------- Leaving GDM -- hopefully with a step in the right direction! --------
 
   58    -744.6244838225      3.11E-01  Gap = 25.66 eV  Line search: overstep
 
   ------------------- Entering Geometric Direct Minimization ------------------
   GDM::trust : actual energy change is       -1.781164193539553E-002
   GDM::trust : predicted energy change was   -0.810760615526620     
   GDM::trust : updated trust radius is        0.108900000000000     
   GDM:         diagonal hessian shift is      0.000000000000000E+000
   GDM::PreWSS: input subspace size is                 19
   GDM::PreWSS: working subspace size set to           18
   GDM::PrEWSS: # of linearly dependent vectors =            0
   GDM::PrEWSS: Max dev from orthonormality =   1.248050274238466E-012
   GDM::BFGS:   lowest Hinv e-value    6.321061216671747E-002
   GDM::BFGS:   highest Hinv e-value    8.95728257201354     
   GDM::      : max scaling in EWCs is          2.82842712474619     
   GDM::      : max rotation in step is       -0.123603917927555     
   GDM::        grad.step =  -2.887238811863852E-002
   ------- Leaving GDM -- hopefully with a step in the right direction! --------
 
   59    -745.0985860188      1.06E-01  Gap = 25.66 eV  Descent step
 
   ------------------- Entering Geometric Direct Minimization ------------------
   GDM::trust : actual energy change is       -1.877367841530031E-003
   GDM::trust : predicted energy change was   -4.150993461046090E-002
   GDM::trust : updated trust radius is        0.330000000000000     
   GDM:         diagonal hessian shift is      0.000000000000000E+000
   GDM::PreWSS: input subspace size is                 19
   GDM::PreWSS: working subspace size set to           18
   GDM::PrEWSS: # of linearly dependent vectors =            0
   GDM::PrEWSS: Max dev from orthonormality =   1.181527098381707E-012
   GDM::BFGS:   lowest Hinv e-value    7.938736601588388E-002
   GDM::BFGS:   highest Hinv e-value    4.67804502527905     
   GDM::      : max scaling in EWCs is          2.82842712474619     
   GDM::      : max rotation in step is        0.444232955054610     
   GDM::        grad.step =  -0.223411513122508     
   ------- Leaving GDM -- hopefully with a step in the right direction! --------
 
   60    -745.1004633867      3.22E-01  Gap = 25.66 eV  Descent step
 
   ------------------- Entering Geometric Direct Minimization ------------------
   GDM::trust : actual energy change is        0.537366001446685     
   GDM::trust : predicted energy change was   -0.742297813001328     
   GDM::trust : updated trust radius is        0.108900000000000     
   GDM::search:  On step            1 .  The current bracket is:
       left   : x =  0.0000E+00, e =      -745.1004633867, g = -0.2860E+00
       current: x =  0.7811E+00, e =      -744.5630973852, g =  0.7145E+00
       right  : x =  0.1000E+04, e =      1000.0000000000, g =  0.1000E+04
       next   : x =  0.1147E+00
   GDM::      : max rotation in step is        6.522718847956099E-002
   ------- Leaving GDM -- hopefully with a step in the right direction! --------
 
   61    -744.5630973852      4.31E-01  Gap = 25.66 eV  Line search: overstep
 
   ------------------- Entering Geometric Direct Minimization ------------------
   GDM::trust : actual energy change is       -4.129208444123833E-002
   GDM::trust : predicted energy change was   -0.742297813001328     
   GDM::trust : updated trust radius is        0.108900000000000     
   GDM:         diagonal hessian shift is      0.000000000000000E+000
   GDM::PreWSS: input subspace size is                 19
   GDM::PreWSS: working subspace size set to           18
   GDM::PrEWSS: # of linearly dependent vectors =            0
   GDM::PrEWSS: Max dev from orthonormality =   4.415971061044743E-012
   GDM::BFGS:   lowest Hinv e-value    8.060297402069350E-002
   GDM::BFGS:   highest Hinv e-value    5.33241800072054     
   GDM::      : max scaling in EWCs is          2.82842712474619     
   GDM::      : max rotation in step is       -0.173147865793368     
   GDM::        grad.step =  -2.905646244508409E-002
   ------- Leaving GDM -- hopefully with a step in the right direction! --------
 
   62    -745.1417554711      1.77E-01  Gap = 25.66 eV  Descent step
 
   ------------------- Entering Geometric Direct Minimization ------------------
   GDM::trust : actual energy change is       -3.604582376317467E-002
   GDM::trust : predicted energy change was   -3.058245747908121E-002
   GDM::trust : updated trust radius is        0.330000000000000     
   GDM:         diagonal hessian shift is      0.000000000000000E+000
   GDM::PreWSS: input subspace size is                 19
   GDM::PreWSS: working subspace size set to           18
   GDM::PrEWSS: # of linearly dependent vectors =            0
   GDM::PrEWSS: Max dev from orthonormality =   1.392004567168925E-012
   GDM::BFGS:   lowest Hinv e-value    5.784120890076079E-002
   GDM::BFGS:   highest Hinv e-value    6.70814693820077     
   GDM::      : max scaling in EWCs is          2.82842712474619     
   GDM::      : max rotation in step is        0.441226606122683     
   GDM::        grad.step =  -0.167631642129742     
   ------- Leaving GDM -- hopefully with a step in the right direction! --------
 
   63    -745.1778012949      2.79E-01  Gap = 25.66 eV  Descent step
 
   ------------------- Entering Geometric Direct Minimization ------------------
   GDM::trust : actual energy change is        0.324848562563602     
   GDM::trust : predicted energy change was   -0.802855042370772     
   GDM::trust : updated trust radius is        0.108900000000000     
   GDM::search:  On step            1 .  The current bracket is:
       left   : x =  0.0000E+00, e =      -745.1778012949, g = -0.2084E+00
       current: x =  0.8044E+00, e =      -744.8529527323, g =  0.4003E+00
       right  : x =  0.1000E+04, e =      1000.0000000000, g =  0.1000E+04
       next   : x =  0.1369E+00
   GDM::      : max rotation in step is        7.509290711667653E-002
   ------- Leaving GDM -- hopefully with a step in the right direction! --------
 
   64    -744.8529527323      4.35E-01  Gap = 25.66 eV  Line search: overstep
 
   ------------------- Entering Geometric Direct Minimization ------------------
   GDM::trust : actual energy change is       -3.357268356228360E-002
   GDM::trust : predicted energy change was   -0.802855042370772     
   GDM::trust : updated trust radius is        0.108900000000000     
   GDM:         diagonal hessian shift is      0.000000000000000E+000
   GDM::PreWSS: input subspace size is                 19
   GDM::PreWSS: working subspace size set to           18
   GDM::PrEWSS: # of linearly dependent vectors =            0
   GDM::PrEWSS: Max dev from orthonormality =   3.487248684264088E-012
   GDM::BFGS:   lowest Hinv e-value    9.352906393801451E-002
   GDM::BFGS:   highest Hinv e-value    8.94887780731172     
   GDM::      : max scaling in EWCs is          2.82842712474619     
   GDM::      : max rotation in step is        0.228464446574867     
   GDM::        grad.step =  -3.484899534913462E-002
   ------- Leaving GDM -- hopefully with a step in the right direction! --------
 
   65    -745.2113739784      2.46E-01  Gap = 25.66 eV  Descent step
 
   ------------------- Entering Geometric Direct Minimization ------------------
   GDM::trust : actual energy change is       -7.138419186878764E-002
   GDM::trust : predicted energy change was   -1.730554069322977E-002
   GDM::trust : updated trust radius is        0.330000000000000     
   GDM:         diagonal hessian shift is      0.000000000000000E+000
   GDM::PreWSS: input subspace size is                 19
   GDM::PreWSS: working subspace size set to           18
   GDM::PrEWSS: # of linearly dependent vectors =            0
   GDM::PrEWSS: Max dev from orthonormality =   3.682568139318221E-012
   GDM::BFGS:   lowest Hinv e-value   -1.838203925583015E-002
   GDM::BFGS:   highest Hinv e-value    887.581687987699     
   GDM::BFGS:   rebuilding Hinv to be positive definite
   GDM::      : max scaling in EWCs is          2.82842712474619     
   GDM::      : max rotation in step is        0.766267093254102     
   GDM::        grad.step =  -0.122399588165326     
   ------- Leaving GDM -- hopefully with a step in the right direction! --------
 
   66    -745.2827581703      3.04E-01  Gap = 25.66 eV  Descent step
 
   ------------------- Entering Geometric Direct Minimization ------------------
   GDM::trust : actual energy change is       -8.877649009298239E-002
   GDM::trust : predicted energy change was   -0.954044752364851     
   GDM::trust : updated trust radius is        0.330000000000000     
   GDM:         diagonal hessian shift is      0.000000000000000E+000
   GDM::PreWSS: input subspace size is                 19
   GDM::PreWSS: working subspace size set to           18
   GDM::PrEWSS: # of linearly dependent vectors =            0
   GDM::PrEWSS: Max dev from orthonormality =   1.620946432634440E-012
[...]
   GDM::PreWSS: working subspace size set to            8
   GDM::PrEWSS: # of linearly dependent vectors =            7
   GDM::PrEWSS: Max dev from orthonormality =   1.166775009942000E-014
   GDM::BFGS:   lowest Hinv e-value    0.243772543344780     
   GDM::BFGS:   highest Hinv e-value    1.34552843673271     
   GDM::      : max scaling in EWCs is          1.74604730708608     
   GDM::      : max rotation in step is       -3.736754258227404E-006
   GDM::        grad.step =  -5.486074129418886E-010
   ------- Leaving GDM -- hopefully with a step in the right direction! --------
 
   10    -745.7387467331      7.34E-06  Gap = 28.83 eV  Normal BFGS step
 
   ------------------- Entering Geometric Direct Minimization ------------------
   GDM::trust : actual energy change is       -2.701199264265597E-010
   GDM::trust : predicted energy change was   -8.229111194128330E-010
   GDM::trust : updated trust radius is        0.330000000000000     
   GDM:         diagonal hessian shift is      0.000000000000000E+000
   GDM::PreWSS: input subspace size is                  9
   GDM::PreWSS: working subspace size set to            9
   GDM::PrEWSS: # of linearly dependent vectors =            8
   GDM::PrEWSS: Max dev from orthonormality =   2.115668751301314E-014
   GDM::BFGS:   lowest Hinv e-value    0.237022135545538     
   GDM::BFGS:   highest Hinv e-value    1.32859412607512     
   GDM::      : max scaling in EWCs is          1.74603067251387     
   GDM::      : max rotation in step is        3.842667747802970E-006
   GDM::        grad.step =  -2.049721210244061E-010
   ------- Leaving GDM -- hopefully with a step in the right direction! --------
 
   11    -745.7387467334      6.54E-06  Gap = 28.83 eV  Normal BFGS step
 
   ------------------- Entering Geometric Direct Minimization ------------------
   GDM::trust : actual energy change is       -1.023181539494544E-010
   GDM::trust : predicted energy change was   -3.074581815366092E-010
   GDM::trust : updated trust radius is        0.330000000000000     
   GDM:         diagonal hessian shift is      0.000000000000000E+000
   GDM::PreWSS: input subspace size is                 10
   GDM::PreWSS: working subspace size set to           10
   GDM::PrEWSS: # of linearly dependent vectors =            9
   GDM::PrEWSS: Max dev from orthonormality =   8.245834570708155E-014
   GDM::BFGS:   lowest Hinv e-value    0.245827644382121     
   GDM::BFGS:   highest Hinv e-value    1.31860425314264     
   GDM::      : max scaling in EWCs is          1.74601917888047     
   GDM::      : max rotation in step is        1.203107680840402E-006
   GDM::        grad.step =  -5.980172370528956E-011
   ------- Leaving GDM -- hopefully with a step in the right direction! --------
 
   12    -745.7387467335      2.99E-06  Gap = 28.83 eV  Normal BFGS step
 
   ------------------- Entering Geometric Direct Minimization ------------------
   GDM::trust : actual energy change is       -4.854427970713004E-011
   GDM::trust : predicted energy change was   -8.970258555793433E-011
   GDM::trust : updated trust radius is        0.330000000000000     
   GDM:         diagonal hessian shift is      0.000000000000000E+000
   GDM::PreWSS: input subspace size is                 11
   GDM::PreWSS: working subspace size set to           11
   GDM::PrEWSS: # of linearly dependent vectors =           10
   GDM::PrEWSS: Max dev from orthonormality =   7.738809593149654E-013
   GDM::BFGS:   lowest Hinv e-value    0.232788111847265     
   GDM::BFGS:   highest Hinv e-value    1.32433928755174     
   GDM::      : max scaling in EWCs is          1.74602335383272     
   GDM::      : max rotation in step is       -2.856224363893327E-007
   GDM::        grad.step =  -4.042679299026768E-012
   ------- Leaving GDM -- hopefully with a step in the right direction! --------
 
   13    -745.7387467335      9.25E-07  Gap = 28.83 eV  Normal BFGS step
 
   ------------------- Entering Geometric Direct Minimization ------------------
   GDM::trust : actual energy change is       -2.955857780762017E-012
   GDM::trust : predicted energy change was   -6.064018948540153E-012
   GDM::trust : updated trust radius is        0.330000000000000     
   GDM:         diagonal hessian shift is      0.000000000000000E+000
   GDM::PreWSS: input subspace size is                 12
   GDM::PreWSS: working subspace size set to           12
   GDM::PrEWSS: # of linearly dependent vectors =           11
   GDM::PrEWSS: Max dev from orthonormality =   2.045474900569388E-012
   GDM::BFGS:   lowest Hinv e-value    0.232936990054792     
   GDM::BFGS:   highest Hinv e-value    1.30974834980621     
   GDM::      : max scaling in EWCs is          1.74602432862463     
   GDM::      : max rotation in step is        8.090127375259447E-008
   GDM::        grad.step =  -2.772690259468392E-013
   ------- Leaving GDM -- hopefully with a step in the right direction! --------
 
   14    -745.7387467335      1.13E-07  Gap = 28.83 eV  Normal BFGS step
 
   ------------------- Entering Geometric Direct Minimization ------------------
   GDM::trust : actual energy change is       -1.023181539494544E-012
   GDM::trust : predicted energy change was   -4.159035389202588E-013
   GDM::trust : updated trust radius is        0.330000000000000     
   GDM:         diagonal hessian shift is      0.000000000000000E+000
   GDM::PreWSS: input subspace size is                 13
   GDM::PreWSS: working subspace size set to           13
   GDM::PrEWSS: # of linearly dependent vectors =           12
   GDM::PrEWSS: Max dev from orthonormality =   3.481900531787652E-012
   GDM::BFGS:   lowest Hinv e-value    0.238411122435914     
   GDM::BFGS:   highest Hinv e-value    1.42083819967799     
   GDM::      : max scaling in EWCs is          1.74602396057123     
   GDM::      : max rotation in step is       -7.582891118346068E-008
   GDM::        grad.step =  -1.770800925465826E-013
   ------- Leaving GDM -- hopefully with a step in the right direction! --------
 
   15    -745.7387467335      1.31E-07  Gap = 28.83 eV  Normal BFGS step
 
   ------------------- Entering Geometric Direct Minimization ------------------
   GDM::trust : actual energy change is       -4.547473508864641E-013
   GDM::trust : predicted energy change was   -2.656201388198738E-013
   GDM::trust : updated trust radius is        0.330000000000000     
   GDM:         diagonal hessian shift is      0.000000000000000E+000
   GDM::PreWSS: input subspace size is                 14
   GDM::PreWSS: working subspace size set to           14
   GDM::PrEWSS: # of linearly dependent vectors =           13
   GDM::PrEWSS: Max dev from orthonormality =   9.397836675528737E-012
   GDM::BFGS:   lowest Hinv e-value    0.237393014373582     
   GDM::BFGS:   highest Hinv e-value    1.31690018536547     
   GDM::      : max scaling in EWCs is          1.74602373066130     
   GDM::      : max rotation in step is       -3.109677333456449E-008
   GDM::        grad.step =  -1.050330610153845E-013
   ------- Leaving GDM -- hopefully with a step in the right direction! --------
 
   16    -745.7387467335      7.83E-08  Gap = 28.83 eV  Normal BFGS step
 
   ------------------- Entering Geometric Direct Minimization ------------------
   GDM::trust : actual energy change is       -1.136868377216160E-012
   GDM::trust : predicted energy change was   -1.575495915230768E-013
   GDM::trust : updated trust radius is        0.330000000000000     
   GDM:         diagonal hessian shift is      0.000000000000000E+000
   GDM::PreWSS: input subspace size is                 15
   GDM::PreWSS: working subspace size set to           15
   GDM::PrEWSS: # of linearly dependent vectors =           14
   GDM::PrEWSS: Max dev from orthonormality =   1.473147992481216E-011
   GDM::BFGS:   lowest Hinv e-value    0.238657031613853     
   GDM::BFGS:   highest Hinv e-value    1.31076144586061     
   GDM::      : max scaling in EWCs is          1.74602395320791     
   GDM::      : max rotation in step is        8.362606228488746E-009
   GDM::        grad.step =  -7.256794655931841E-015
   ------- Leaving GDM -- hopefully with a step in the right direction! --------
 
   17    -745.7387467335      1.46E-08  Gap = 28.83 eV  Normal BFGS step
 
   ------------------- Entering Geometric Direct Minimization ------------------
   GDM::trust : actual energy change is        1.932676241267473E-012
   GDM::trust : predicted energy change was   -1.088519198389776E-014
   GDM::trust : updated trust radius is        0.108900000000000     
   GDM::WARNING energy changes are now smaller than effective accuracy.
   GDM::        calculation will continue, but THRESH should be increased
   GDM::        or SCF_CONVERGENCE decreased.
   GDM::        effective_thresh =   3.000000000000000E-010
   GDM:         diagonal hessian shift is      0.000000000000000E+000
   GDM::PreWSS: input subspace size is                 16
   GDM::PreWSS: working subspace size set to           16
   GDM::PrEWSS: # of linearly dependent vectors =           15
   GDM::PrEWSS: Max dev from orthonormality =   1.414345654482396E-010
   GDM::BFGS:   lowest Hinv e-value    0.234133092513397     
   GDM::BFGS:   highest Hinv e-value    1.32025162972714     
   GDM::      : max scaling in EWCs is          1.74602394761326     
   GDM::      : max rotation in step is       -5.058904004108626E-009
   GDM::        grad.step =  -8.627696137981524E-016
   ------- Leaving GDM -- hopefully with a step in the right direction! --------
 
   18    -745.7387467335      7.72E-09 Convergence criterion met
 ---------------------------------------
 One-Electron    Energy = -1719.4843810330
 Total Coulomb   Energy =   699.3481675732
 Alpha Exchange  Energy =    -6.3168764687
 Beta  Exchange  Energy =    -6.3168764687
 DFT   Exchange  Energy =   -50.4612860611
 DFT Correlation Energy =    -2.8380188046
 Nuclear Repu.   Energy =   340.3305245293
 Nuclear Attr.   Energy = -2439.1063652778
 Kinetic         Energy =   719.6219842448
 SCF time:  CPU 74.22 s  wall 6.68 s
 SCF   energy in the final basis set = -745.7387467335
 Total energy in the final basis set = -745.7387467335
 
 --------------------------------------------------------------
 
                    Orbital Energies (a.u.)
 --------------------------------------------------------------
 
 Alpha MOs
 -- Occupied --
-89.077 -19.186 -19.186 -19.169 -19.146  -8.121  -6.085  -6.085
 -6.078  -2.091  -1.315  -1.300  -1.293  -1.102  -0.996  -0.973
 -0.867  -0.655  -0.507  -0.490  -0.471  -0.401  -0.381  -0.362
 -0.355  -0.337  -0.336  -0.317  -0.317  -0.295
 -- Virtual --
 -0.131  -0.104  -0.095  -0.037  -0.034  -0.001   0.003   0.018
  0.020   0.030   0.034   0.049   0.067   0.081   0.089   0.113
  0.128   0.144   0.166   0.175   0.182   0.194   0.196   0.214
  0.219   0.227   0.242   0.246   0.256   0.272   0.281   0.287
  0.289   0.325   0.344   0.349   0.353   0.373   0.439   0.489
  0.536   0.599   0.659   0.673   0.676   0.847   0.912   0.917
  1.078   1.150   1.170   1.182   1.185   1.216   1.219   1.232
  1.260   1.262   1.286   1.305   1.325   1.654   1.700   1.716
  1.748   1.759   1.760   1.781   1.794   1.796   1.815   1.824
  1.828   1.836   1.842   1.857   1.897   1.902   1.953   2.103
  2.106   2.189   2.392   2.469   2.834  14.004
 --------------------------------------------------------------
 
          Ground-State Mulliken Net Atomic Charges

     Atom                 Charge (a.u.)
  ----------------------------------------
      1 Zr                    1.558401
      2 S                     1.178221
      3 O                    -0.826143
      4 O                    -0.508742
      5 O                    -0.826147
      6 O                    -0.575590
  ----------------------------------------
  Sum of atomic charges =     0.000000

 -----------------------------------------------------------------
                    Cartesian Multipole Moments
 -----------------------------------------------------------------
    Charge (ESU x 10^10)
                 0.0000
    Dipole Moment (Debye)
         X       3.0421      Y      -1.2920      Z       4.1193
       Tot       5.2813
    Quadrupole Moments (Debye-Ang)
        XX     -64.0468     XY      -8.9065     YY     -61.2510
        XZ      13.0749     YZ      -0.0102     ZZ     -51.0451
    Octopole Moments (Debye-Ang^2)
       XXX      10.7285    XXY      -5.8433    XYY       9.4376
       YYY       6.6199    XXZ       4.9143    XYZ      -0.3417
       YYZ       3.2146    XZZ      12.6580    YZZ       3.2278
       ZZZ      10.1587
    Hexadecapole Moments (Debye-Ang^3)
      XXXX    -858.1605   XXXY    -153.2079   XXYY    -182.5022
      XYYY     -99.9215   YYYY    -225.2222   XXXZ      42.0635
      XXYZ      10.0639   XYYZ       8.6126   YYYZ     -10.3712
      XXZZ    -145.5684   XYZZ     -31.0588   YYZZ     -58.7838
      XZZZ       8.0182   YZZZ     -10.3396   ZZZZ    -126.1773
 -----------------------------------------------------------------
 Calculating analytic gradient of the SCF energy
 Gradient of SCF Energy
            1           2           3           4           5           6
    1   0.0000866   0.0000549  -0.0000143  -0.0000454  -0.0000351  -0.0000466
    2   0.0000350   0.0000229  -0.0000304   0.0000080  -0.0000181  -0.0000174
    3   0.0000849   0.0000494  -0.0000896  -0.0000111  -0.0000500   0.0000164
 Max gradient component =       8.958E-05
 RMS gradient           =       4.721E-05
 Gradient time:  CPU 16.77 s  wall 2.68 s
 Geometry Optimization Parameters
   NAtoms,    NIC,     NZ,  NCons,   NDum,   NFix, NCnnct, MaxDiis
        6      36       0       0       0       0       0       0

 Cartesian Hessian Update
 Hessian Updated using BFGS Update


** GEOMETRY OPTIMIZATION IN DELOCALIZED INTERNAL COORDINATES **
   Searching for a Minimum

   Optimization Cycle:  30

                       Coordinates (Angstroms)
     ATOM                X               Y               Z
      1  Zr        1.0108341110    0.0744650741    0.4211643322
      2  S        -1.5951247741   -0.2552669578   -0.4713777900
      3  O        -0.8020700591    0.9921996660    0.3593481135
      4  O         2.2667029520    0.9504641586   -0.4644280519
      5  O        -0.1505453491   -1.0895294052   -0.7748857966
      6  O        -2.3696068807   -1.0324425357    0.5101891927
   Point Group: c1    Number of degrees of freedom:    12


   Energy is   -745.738746734

 Hessian Updated using BFGS Update

 12 Hessian modes will be used to form the next step
  Hessian Eigenvalues:
     0.012746    0.035716    0.076536    0.077916    0.089706    0.116820
     0.236691    0.252787    0.340955    0.555897    0.857563    1.785315

 Minimum Search - Taking Simple RFO Step
 Searching for Lamda that Minimizes Along All modes
 Value Taken    Lamda =   0.00000000
 Step Taken.  Stepsize is  0.001354

                             Maximum     Tolerance    Cnvgd?
         Gradient           0.000081      0.000300     YES
         Displacement       0.000880      0.001200     YES
         Energy change     -0.000001      0.000001      NO


                       Distance Matrix (Angstroms)
             Zr(  1)   S (  2)   O (  3)   O (  4)   O (  5)
   S (  2)  2.774234
   O (  3)  2.032899  1.695646
   O (  4)  1.768857  4.045683  3.177690
   O (  5)  2.033278  1.695559  2.458570  3.178214
   O (  6)  3.558167  1.472175  2.564976  5.135871  2.564939
 
 Final energy is   -745.738746733525     


 ******************************
 **  OPTIMIZATION CONVERGED  **
 ******************************

                       Coordinates (Angstroms)
     ATOM                X               Y               Z
      1  Zr        1.0108341110    0.0744650741    0.4211643322
      2  S        -1.5951247741   -0.2552669578   -0.4713777900
      3  O        -0.8020700591    0.9921996660    0.3593481135
      4  O         2.2667029520    0.9504641586   -0.4644280519
      5  O        -0.1505453491   -1.0895294052   -0.7748857966
      6  O        -2.3696068807   -1.0324425357    0.5101891927

Z-matrix Print:
$molecule
0 1
Zr
O  1 1.768857
O  1 2.032899 2 113.226220
S  3 1.695646 1 95.731379 2 -116.762929 0
O  4 1.472175 3 107.925182 1 -100.949407 0
O  4 1.695559 3 92.935077 1 8.959461 0
$end

 
 --------------------------------------------------------------
 
                    Orbital Energies (a.u.)
 --------------------------------------------------------------
 
 Alpha MOs
 -- Occupied --
-89.077 -19.186 -19.186 -19.169 -19.146  -8.121  -6.085  -6.085
 -6.078  -2.091  -1.315  -1.300  -1.293  -1.102  -0.996  -0.973
 -0.867  -0.655  -0.507  -0.490  -0.471  -0.401  -0.381  -0.362
 -0.355  -0.337  -0.336  -0.317  -0.317  -0.295
 -- Virtual --
 -0.131  -0.104  -0.095  -0.037  -0.034  -0.001   0.003   0.018
  0.020   0.030   0.034   0.049   0.067   0.081   0.089   0.113
  0.128   0.144   0.166   0.175   0.182   0.194   0.196   0.214
  0.219   0.227   0.242   0.246   0.256   0.272   0.281   0.287
  0.289   0.325   0.344   0.349   0.353   0.373   0.439   0.489
  0.536   0.599   0.659   0.673   0.676   0.847   0.912   0.917
  1.078   1.150   1.170   1.182   1.185   1.216   1.219   1.232
  1.260   1.262   1.286   1.305   1.325   1.654   1.700   1.716
  1.748   1.759   1.760   1.781   1.794   1.796   1.815   1.824
  1.828   1.836   1.842   1.857   1.897   1.902   1.953   2.103
  2.106   2.189   2.392   2.469   2.834  14.004
 --------------------------------------------------------------
 
          Ground-State Mulliken Net Atomic Charges

     Atom                 Charge (a.u.)
  ----------------------------------------
      1 Zr                    1.558401
      2 S                     1.178221
      3 O                    -0.826143
      4 O                    -0.508742
      5 O                    -0.826147
      6 O                    -0.575590
  ----------------------------------------
  Sum of atomic charges =     0.000000

 -----------------------------------------------------------------
                    Cartesian Multipole Moments
 -----------------------------------------------------------------
    Charge (ESU x 10^10)
                 0.0000
    Dipole Moment (Debye)
         X       3.0421      Y      -1.2920      Z       4.1193
       Tot       5.2813
    Quadrupole Moments (Debye-Ang)
        XX     -64.0468     XY      -8.9065     YY     -61.2510
        XZ      13.0749     YZ      -0.0102     ZZ     -51.0451
    Octopole Moments (Debye-Ang^2)
       XXX      10.7285    XXY      -5.8433    XYY       9.4376
       YYY       6.6199    XXZ       4.9143    XYZ      -0.3417
       YYZ       3.2146    XZZ      12.6580    YZZ       3.2278
       ZZZ      10.1587
    Hexadecapole Moments (Debye-Ang^3)
      XXXX    -858.1605   XXXY    -153.2079   XXYY    -182.5022
      XYYY     -99.9215   YYYY    -225.2222   XXXZ      42.0635
      XXYZ      10.0639   XYYZ       8.6126   YYYZ     -10.3712
      XXZZ    -145.5684   XYZZ     -31.0588   YYZZ     -58.7838
      XZZZ       8.0182   YZZZ     -10.3396   ZZZZ    -126.1773
 -----------------------------------------------------------------
Archival summary:
1\1\hpc3465\OPT\ProcedureUnspecified\BasisUnspecified\r114(\liqiuy\FriJan1719:57:182020FriJan1719:57:182020\0\\#,OPT,ProcedureUnspecified,BasisUnspecified,\\28,1\Zr\O,1,1.76886\O,1,2.0329,2,113.226\S,3,1.69565,1,95.7314,2,-116.763,0\O,4,1.47217,3,107.925,1,-100.949,0\O,4,1.69556,3,92.9351,1,8.95946,0\\\@

 Total job time:  345.13s(wall), 3415.64s(cpu) 
 Fri Jan 17 19:57:18 2020

        *************************************************************
        *                                                           *
        *  Thank you very much for using Q-Chem.  Have a nice day.  *
        *                                                           *
        *************************************************************


0 sent ACK to 0 
now end server 0 ... 
cleanup process ... done
