
Running Job 1 of 2 ZrOx.in
qchem ZrOx.in_4173.0 /tmp/5732749.priya/ZrOx.save/ 1
/usr/usc/qchem/4.4/bin/mpi/mpirun_qchem -machinefile /usr/usc/qchem/4.4/bin/mpi/machines -np 1 /usr/usc/qchem/4.4/exe/qcprog.exe ZrOx.in_4173.0 /tmp/5732749.priya/ZrOx.save/

Process 0 of 1 is on hpc3920.hpcc.usc.edu - thread support 0
initial socket setup ...start
initial socket setup ...done 
now start server 0 ... 
Check license passed

                  Welcome to Q-Chem
     A Quantum Leap Into The Future Of Chemistry


 Q-Chem 4.4, Q-Chem, Inc., Pleasanton, CA (2016)

 Y. Shao,  Z. Gan,  E. Epifanovsky,  A. T. B. Gilbert,  M. Wormit,  
 J. Kussmann,  A. W. Lange,  A. Behn,  J. Deng,  X. Feng,  D. Ghosh,  
 M. Goldey,  P. R. Horn,  L. D. Jacobson,  I. Kaliman,  F.Rob,  
 R. Z. Khaliullin,  T. Kus,  A. Landau,  J. Liu,  E. I. Proynov,  Y. M. Rhee,  
 R. M. Richard,  M. A. Rohrdanz,  R. P. Steele,  E. J. Sundstrom,  
 H. L. Woodcock III,  P. M. Zimmerman,  D. Zuev,  B. Albrecht,  E. Alguire,  
 B. Austin,  S. A. Baeppler,  G. J. O. Beran,  Y. A. Bernard,  E. Berquist,  
 K. Brandhorst,  K. B. Bravaya,  S. T. Brown,  D. Casanova,  C.-M. Chang,  
 Y. Chen,  S. H. Chien,  K. D. Closser,  M. P. Coons,  D. L. Crittenden,  
 S. Dasgupta,  M. Diedenhofen,  R. A. DiStasio Jr.,  H. Do,  A. D. Dutoi,  
 R. G. Edgar,  P.-T. Fang,  S. Fatehi,  Q. Feng,  L. Fusti-Molnar,  
 A. Ghysels,  A. Golubeva-Zadorozhnaya,  J. Gomes,  A. Gunina,  
 M. W. D. Hanson-Heine,  P. H. P. Harbach,  A. W. Hauser,  E. G. Hohenstein,  
 Z. C. Holden,  K. Hui,  T.-C. Jagau,  H. Ji,  B. Kaduk,  K. Khistyaev,  
 Jaehoon Kim,  Jihan Kim,  R. A. King,  P. Klunzinger,  D. Kosenkov,  
 T. Kowalczyk,  C. M. Krauter,  A. Kunitsa,  K. U. Lao,  A. Laurent,  
 K. V. Lawler,  D. Lefrancois,  S. Lehtola,  S. V. Levchenko,  C. Y. Lin,  
 Y.-S. Lin,  F. Liu,  E. Livshits,  R. C. Lochan,  A. Luenser,  P. Manohar,  
 S. F. Manzer,  S.-P. Mao,  Y. Mao,  N. Mardirossian,  A. V. Marenich,  
 L. A. Martinez-Martinez,  S. A. Maurer,  N. J. Mayhall,  J.-M. Mewes,  
 A. F. Morrison,  K. Nanda,  C. M. Oana,  R. Olivares-Amaya,  D. P. O'Neill,  
 J. A. Parkhill,  T. M. Perrine,  R. Peverati,  P. A. Pieniazek,  F. Plasser,  
 A. Prociuk,  D. R. Rehn,  E. Rosta,  N. J. Russ,  N. Sergueev,  
 S. M. Sharada,  S. Sharma,  D. W. Small,  A. Sodt,  T. Stauch,  T. Stein,  
 D. Stuck,  Y.-C. Su,  A. J. W. Thom,  T. Tsuchimochi,  L. Vogt,  O. Vydrov,  
 T. Wang,  M. A. Watson,  J. Wenzel,  A. White,  C. F. Williams,  
 V. Vanovschi,  S. Yeganeh,  S. R. Yost,  Z.-Q. You,  I. Y. Zhang,  X. Zhang,  
 Y. Zhao,  B. R. Brooks,  G. K. L. Chan,  D. M. Chipman,  C. J. Cramer,  
 W. A. Goddard III,  M. S. Gordon,  W. J. Hehre,  A. Klamt,  
 H. F. Schaefer III,  M. W. Schmidt,  C. D. Sherrill,  D. G. Truhlar,  
 A. Warshel,  X. Xu,  A. Aspuru-Guzik,  R. Baer,  A. T. Bell,  N. A. Besley,  
 J.-D. Chai,  A. Dreuw,  B. D. Dunietz,  T. R. Furlani,  S. R. Gwaltney,  
 C.-P. Hsu,  Y. Jung,  J. Kong,  D. S. Lambrecht,  W. Liang,  C. Ochsenfeld,  
 V. A. Rassolov,  L. V. Slipchenko,  J. E. Subotnik,  T. Van Voorhis,  
 J. M. Herbert,  A. I. Krylov,  P. M. W. Gill,  M. Head-Gordon

 Contributors to earlier versions of Q-Chem not listed above: 
 R. D. Adamson,  J. Baker,  E. F. C. Byrd,  A. K. Chakraborty,  C.-L. Cheng,  
 H. Dachsel,  R. J. Doerksen,  G. Hawkins,  A. Heyden,  S. Hirata,  
 G. Kedziora,  F. J. Keil,  C. Kelley,  P. P. Korambath,  W. Kurlancheek,  
 A. M. Lee,  M. S. Lee,  D. Liotard,  I. Lotan,  P. E. Maslen,  N. Nair,  
 D. Neuhauser,  R. Olson,  B. Peters,  J. Ritchie,  N. E. Schultz,  
 N. Shenvi,  A. C. Simmonett,  K. S. Thanthiriwatte,  Q. Wu,  W. Zhang

 Please cite Q-Chem as follows:
 Y. Shao et al., Mol. Phys. 113, 184-215 (2015)
 DOI: 10.1080/00268976.2014.952696

 Q-Chem 4.4.1 for Intel X86 Linux

 Parts of Q-Chem use Armadillo 5.200.1 (Boston Tea Smuggler).
 http://arma.sourceforge.net/

 Q-Chem begins on Fri Jan 17 19:53:10 2020  

Host: 
0

     Scratch files written to /tmp/5732749.priya/ZrOx.save//
 Jul2716 11668_ 21447  21445 5558   
 Parallel job on  1  processors
Processing $rem in /usr/usc/qchem/4.4/config/preferences.
 MEM_TOTAL  2000 

Checking the input file for inconsistencies... 	...done.

--------------------------------------------------------------
User input:
--------------------------------------------------------------
$comment
--------------------------------------------------------
A SINGLE POINT DFT CALCULATION WITH BASIS SET PROJECTION
--------------------------------------------------------
$end

$molecule
0 5
Zr 0.24735 0.06216 -0.04299
O -1.78904 0.40557 -0.61930
O 0.46809 0.66277 1.58848
O 1.38004 0.86323 -1.09776
O 0.55374 -1.66271 -0.08652
O -2.39427 -0.26641 0.28078
$end

$rem
JOBTYPE   SP
METHOD   B3LYP
BASIS   GEN
ECP   GEN
MAX_SCF_CYCLES   200
SCF_CONVERGENCE 8
SCF_ALGORITHM  DIIS_GDM
SCF_PRINT 1
PDB_PRINT 2
THRESH 14
VARTHRESH 14
INCDFT FALSE
SYMMETRY False
Sym_ignore True
SCF_ALGORITHM GDM
XC_GRID 000128000302
DFT_D           EMPIRICAL_GRIMME3
DFT_D3_S6       1000
DFT_D3_RS6     1261
DFT_D3_S8      1703
DFT_D3_3BODY    FALSE
$end

$basis
O
6-31+G**
****
S
6-31+G**
****
Zr
LanL2DZ
****
$end

$ecp
Zr
LanL2DZ
****
$end

--------------------------------------------------------------
 ----------------------------------------------------------------
             Standard Nuclear Orientation (Angstroms)
    I     Atom           X                Y                Z
 ----------------------------------------------------------------
    1      Zr      0.2473500000     0.0621600000    -0.0429900000
    2      O      -1.7890400000     0.4055700000    -0.6193000000
    3      O       0.4680900000     0.6627700000     1.5884800000
    4      O       1.3800400000     0.8632300000    -1.0977600000
    5      O       0.5537400000    -1.6627100000    -0.0865200000
    6      O      -2.3942700000    -0.2664100000     0.2807800000
 ----------------------------------------------------------------
 Nuclear Repulsion Energy =   252.5247747567 hartrees
 There are       28 alpha and       24 beta electrons

 Q-Chem warning in module /home/scratch/svnadmin/11668_zgan/qchem/forms1/BasisType.C, line 1419:

 Setting pure/cartesian flag to 2111 for general basis


 Requested basis set is non-standard
 There are 33 shells and 112 basis functions

 Total QAlloc Memory Limit   2000 MB
 Mega-Array Size        61 MB
 MEM_STATIC part        62 MB

                       Distance Matrix (Angstroms)
             Zr(  1)   O (  2)   O (  3)   O (  4)   O (  5)
   O (  2)  2.144049
   O (  3)  1.752471  3.167819
   O (  4)  1.742768  3.237506  2.843892
   O (  5)  1.752412  3.170214  2.867197  2.843545
   O (  6)  2.681593  1.275933  3.281244  4.173952  3.282579
 
 A cutoff of  1.0D-14 yielded    542 shell pairs
 There are      6446 function pairs (      7291 Cartesian)
 
 -------------------------------------------------------
 OpenMP Integral Computing Module                       
 Release: version 1.0, May 2013, Q-Chem Inc. Pittsburgh 
 -------------------------------------------------------
 Integral Job Info:
 Integral job number is                      11
 Integral operator is                         1
 short-range coefficients                     0
 long-range coefficients              100000000
 Omega coefficients                           0
 if combine SR and LR in K                    0
 Integral screening is                        0
 Integral computing path is                   2
 max size of driver memory is            800000
 size of driver memory is                593474
 size of scratch memory is             11771240
 max col of scratch BK array               1296
 max len of scratch array in speh3          155
 max len of scratch index in speh4           18
 max int batch size is                      520
 min int batch size is                       52
 fixed nKL is                                52
 max L of basis functions is                  2
 order of int derivative is                   0
 number of shells is                         33
 number of basis is                         119
 number of cartesian basis is               119
 number of contracted shell pairs           542
 number of primitive shell pairs           2410
 maxK2 (contraction) of shell pair           36
 max number of K2 of shell pair               1
 max number of CS2 of shell pair             62
 max number of PS2 of shell pair            336
 mem total for path MDJ                   29944
 -------------------------------------------------------
 Requested basis set is non-standard
 Compound shells will be simplified
 There are 48 shells and 112 basis functions
 A cutoff of  1.0D-14 yielded   1149 shell pairs
 There are      6401 function pairs (      7246 Cartesian)
 Smallest overlap matrix eigenvalue = 4.93E-04

 Scale SEOQF with 1.000000e-01/1.000000e-01/1.000000e-01

 Standard Electronic Orientation quadrupole field applied
 Nucleus-field energy     =     0.0000000021 hartrees
 Guess MOs from core Hamiltonian diagonalization
 An unrestricted hybrid HF-DFT SCF calculation will be
 performed using Geometric Direct Minimization
 Exchange:     0.2000 Hartree-Fock + 0.0800 Slater + 0.7200 B88
 Correlation:  0.1900 VWN1RPA + 0.8100 LYP
 Using Euler-Maclaurin-Lebedev (128,302) quadrature formula
 Dispersion:   Grimme D3
 SCF converges when RMS gradient is below 1.0E-08
 Maximum number of minimization steps = 200
 using 12 threads for integral computing 
 -------------------------------------------------------
 OpenMP BLAS3 based DFT computing Module                
 Release: version 1.0, May 2013, Q-Chem Inc. Pittsburgh 
 -------------------------------------------------------
 
   ------------------- Entering Geometric Direct Minimization ------------------
   GDM:         diagonal hessian shift is      0.000000000000000E+000
   GDM::PreWSS: input subspace size is                  1
   GDM::PreWSS: working subspace size set to            1
   GDM::PrEWSS: # of linearly dependent vectors =            0
   GDM::PrEWSS: Max dev from orthonormality =   0.000000000000000E+000
   GDM::BFGS:   lowest Hinv e-value     1.00000000000000     
   GDM::BFGS:   highest Hinv e-value    1.00000000000000     
   GDM::      : max scaling in EWCs is          1.41421356237309     
   GDM::      : max rotation in step is       -8.731234556715919E-002
   GDM::        grad.step =   -3.34744558169575     
   ------- Leaving GDM -- hopefully with a step in the right direction! --------
 
 ---------------------------------------
  Cycle       Energy        RMS Gradient
 ---------------------------------------
    1    -397.4775095888      1.90E+00  Gap = 0.00 eV  Descent step
 
   ------------------- Entering Geometric Direct Minimization ------------------
   GDM::trust : actual energy change is        -3.29591964321804     
   GDM::trust : predicted energy change was   -0.163350000000000     
   GDM::trust : updated trust radius is        0.330000000000000     
   GDM::search:  On step            1 .  The current bracket is:
       left   : x =  0.0000E+00, e =      -397.4775095888, g = -0.8457E+01
       current: x =  0.3958E+00, e =      -400.7734292320, g = -0.8136E+01
       right  : x =  0.1000E+04, e =      1000.0000000000, g =  0.1000E+04
       next   : x =  0.3958E+01
   GDM::      : max rotation in step is       -0.873123455671592     
   ------- Leaving GDM -- hopefully with a step in the right direction! --------
 
    2    -400.7734292320      6.30E+00  Gap = -3.46 eV  Line search: understep
 
   ------------------- Entering Geometric Direct Minimization ------------------
   GDM::trust : actual energy change is        -9.95940255151123     
   GDM::trust : predicted energy change was   -0.163350000000000     
   GDM::trust : updated trust radius is        0.330000000000000     
   GDM:         diagonal hessian shift is      0.000000000000000E+000
   GDM::PreWSS: input subspace size is                  2
   GDM::PreWSS: working subspace size set to            2
   GDM::PrEWSS: # of linearly dependent vectors =            0
   GDM::PrEWSS: Max dev from orthonormality =   5.368969158148218E-016
   GDM::BFGS:   lowest Hinv e-value    0.357093887683242     
   GDM::BFGS:   highest Hinv e-value    1.49753134953713     
   GDM::      : max scaling in EWCs is          2.82842712474619     
   GDM::      : max rotation in step is       -0.172004609929632     
   GDM::        grad.step =   -2.49241156682988     
   ------- Leaving GDM -- hopefully with a step in the right direction! --------
 
    3    -407.4369121403      1.63E+00  Gap = -3.46 eV  Descent step
 
   ------------------- Entering Geometric Direct Minimization ------------------
   GDM::trust : actual energy change is        -2.39349457632289     
   GDM::trust : predicted energy change was   -0.222703602991590     
   GDM::trust : updated trust radius is        0.330000000000000     
   GDM:         diagonal hessian shift is      0.000000000000000E+000
   GDM::PreWSS: input subspace size is                  3
   GDM::PreWSS: working subspace size set to            3
   GDM::PrEWSS: # of linearly dependent vectors =            0
   GDM::PrEWSS: Max dev from orthonormality =   1.836031326973853E-014
   GDM::BFGS:   lowest Hinv e-value    0.437133505386758     
   GDM::BFGS:   highest Hinv e-value    1.81491920106425     
   GDM::      : max scaling in EWCs is          2.82842712474619     
   GDM::      : max rotation in step is        0.204504676381018     
   GDM::        grad.step =   -1.95261545402047     
   ------- Leaving GDM -- hopefully with a step in the right direction! --------
 
    4    -409.8304067166      1.30E+00  Gap = -3.46 eV  Descent step
 
   ------------------- Entering Geometric Direct Minimization ------------------
   GDM::trust : actual energy change is        -1.87656928497529     
   GDM::trust : predicted energy change was   -0.171130981721876     
   GDM::trust : updated trust radius is        0.330000000000000     
   GDM:         diagonal hessian shift is      0.000000000000000E+000
   GDM::PreWSS: input subspace size is                  4
   GDM::PreWSS: working subspace size set to            4
   GDM::PrEWSS: # of linearly dependent vectors =            0
   GDM::PrEWSS: Max dev from orthonormality =   2.652877917341812E-013
   GDM::BFGS:   lowest Hinv e-value    0.390641269704263     
   GDM::BFGS:   highest Hinv e-value    1.86422361641187     
   GDM::      : max scaling in EWCs is          2.82842712474619     
   GDM::      : max rotation in step is        0.101551763774444     
   GDM::        grad.step =   -1.60733914076900     
   ------- Leaving GDM -- hopefully with a step in the right direction! --------
 
    5    -411.7069760016      8.69E-01  Gap = -3.46 eV  Descent step
 
   ------------------- Entering Geometric Direct Minimization ------------------
   GDM::trust : actual energy change is        -1.54843005447276     
   GDM::trust : predicted energy change was   -0.164183508671455     
   GDM::trust : updated trust radius is        0.330000000000000     
   GDM:         diagonal hessian shift is      0.000000000000000E+000
   GDM::PreWSS: input subspace size is                  5
   GDM::PreWSS: working subspace size set to            5
   GDM::PrEWSS: # of linearly dependent vectors =            0
   GDM::PrEWSS: Max dev from orthonormality =   1.612279754148460E-012
   GDM::BFGS:   lowest Hinv e-value    0.363001056599250     
   GDM::BFGS:   highest Hinv e-value    1.92719381584828     
   GDM::      : max scaling in EWCs is          2.82842712474619     
   GDM::      : max rotation in step is        0.198509088891703     
   GDM::        grad.step =   -1.52487637743911     
   ------- Leaving GDM -- hopefully with a step in the right direction! --------
 
    6    -413.2554060560      9.83E-01  Gap = -3.46 eV  Descent step
 
   ------------------- Entering Geometric Direct Minimization ------------------
   GDM::trust : actual energy change is        -1.44815984569664     
   GDM::trust : predicted energy change was   -0.147844702618634     
   GDM::trust : updated trust radius is        0.330000000000000     
   GDM:         diagonal hessian shift is      0.000000000000000E+000
   GDM::PreWSS: input subspace size is                  6
   GDM::PreWSS: working subspace size set to            6
   GDM::PrEWSS: # of linearly dependent vectors =            0
   GDM::PrEWSS: Max dev from orthonormality =   1.907491525843241E-012
   GDM::BFGS:   lowest Hinv e-value    0.287509916070208     
   GDM::BFGS:   highest Hinv e-value    2.13519672675603     
   GDM::      : max scaling in EWCs is          2.82842712474619     
   GDM::      : max rotation in step is       -0.182639639135428     
   GDM::        grad.step =   -1.24881192496041     
   ------- Leaving GDM -- hopefully with a step in the right direction! --------
 
    7    -414.7035659017      7.40E-01  Gap = 0.00 eV  Descent step
 
   ------------------- Entering Geometric Direct Minimization ------------------
   GDM::trust : actual energy change is        -1.18292077471699     
   GDM::trust : predicted energy change was   -0.160030993842304     
   GDM::trust : updated trust radius is        0.330000000000000     
   GDM:         diagonal hessian shift is      0.000000000000000E+000
   GDM::PreWSS: input subspace size is                  7
   GDM::PreWSS: working subspace size set to            7
   GDM::PrEWSS: # of linearly dependent vectors =            0
   GDM::PrEWSS: Max dev from orthonormality =   2.279176847252984E-012
   GDM::BFGS:   lowest Hinv e-value    0.307491941205961     
   GDM::BFGS:   highest Hinv e-value    2.29379802705989     
   GDM::      : max scaling in EWCs is          2.82842712474619     
   GDM::      : max rotation in step is       -6.738164965982860E-002
   GDM::        grad.step =   -1.02901725052778     
   ------- Leaving GDM -- hopefully with a step in the right direction! --------
 
    8    -415.8864866765      5.41E-01  Gap = -3.46 eV  Descent step
 
   ------------------- Entering Geometric Direct Minimization ------------------
   GDM::trust : actual energy change is       -0.972538119060232     
   GDM::trust : predicted energy change was   -0.159698661315225     
   GDM::trust : updated trust radius is        0.330000000000000     
   GDM:         diagonal hessian shift is      0.000000000000000E+000
   GDM::PreWSS: input subspace size is                  8
   GDM::PreWSS: working subspace size set to            8
   GDM::PrEWSS: # of linearly dependent vectors =            0
   GDM::PrEWSS: Max dev from orthonormality =   3.346427301931243E-012
   GDM::BFGS:   lowest Hinv e-value    0.351263491676409     
   GDM::BFGS:   highest Hinv e-value    2.42788975799398     
   GDM::      : max scaling in EWCs is          2.82842712474619     
   GDM::      : max rotation in step is       -9.987052160447170E-002
   GDM::        grad.step =  -0.904286103702757     
   ------- Leaving GDM -- hopefully with a step in the right direction! --------
 
    9    -416.8590247955      4.72E-01  Gap = -3.46 eV  Descent step
 
   ------------------- Entering Geometric Direct Minimization ------------------
   GDM::trust : actual energy change is       -0.858041579509973     
   GDM::trust : predicted energy change was   -0.148798094604586     
   GDM::trust : updated trust radius is        0.330000000000000     
   GDM:         diagonal hessian shift is      0.000000000000000E+000
   GDM::PreWSS: input subspace size is                  9
   GDM::PreWSS: working subspace size set to            9
   GDM::PrEWSS: # of linearly dependent vectors =            0
   GDM::PrEWSS: Max dev from orthonormality =   4.496063243930593E-012
   GDM::BFGS:   lowest Hinv e-value    0.300910673463775     
   GDM::BFGS:   highest Hinv e-value    2.54696474550638     
   GDM::      : max scaling in EWCs is          2.82842712474619     
   GDM::      : max rotation in step is        0.172869130261711     
   GDM::        grad.step =  -0.825054912736376     
   ------- Leaving GDM -- hopefully with a step in the right direction! --------
 
   10    -417.7170663750      4.63E-01  Gap = -3.46 eV  Descent step
 
   ------------------- Entering Geometric Direct Minimization ------------------
   GDM::trust : actual energy change is       -0.776711581939878     
   GDM::trust : predicted energy change was   -0.139295313387017     
   GDM::trust : updated trust radius is        0.330000000000000     
   GDM:         diagonal hessian shift is      0.000000000000000E+000
   GDM::PreWSS: input subspace size is                 10
   GDM::PreWSS: working subspace size set to           10
   GDM::PrEWSS: # of linearly dependent vectors =            0
   GDM::PrEWSS: Max dev from orthonormality =   1.641164981691645E-011
   GDM::BFGS:   lowest Hinv e-value    0.235194041730167     
   GDM::BFGS:   highest Hinv e-value    2.67975726010214     
   GDM::      : max scaling in EWCs is          2.82842712474619     
   GDM::      : max rotation in step is       -0.176102873860739     
   GDM::        grad.step =  -0.739115913401515     
   ------- Leaving GDM -- hopefully with a step in the right direction! --------
 
   11    -418.4937779570      4.54E-01  Gap = -3.46 eV  Descent step
 
   ------------------- Entering Geometric Direct Minimization ------------------
   GDM::trust : actual energy change is       -0.704668401327524     
   GDM::trust : predicted energy change was   -0.140413028205335     
   GDM::trust : updated trust radius is        0.330000000000000     
   GDM:         diagonal hessian shift is      0.000000000000000E+000
   GDM::PreWSS: input subspace size is                 11
   GDM::PreWSS: working subspace size set to           11
   GDM::PrEWSS: # of linearly dependent vectors =            0
   GDM::PrEWSS: Max dev from orthonormality =   7.791638861887051E-012
   GDM::BFGS:   lowest Hinv e-value    0.186587555366888     
   GDM::BFGS:   highest Hinv e-value    3.16556339044548     
   GDM::      : max scaling in EWCs is          2.82842712474619     
   GDM::      : max rotation in step is       -0.254121522759627     
   GDM::        grad.step =  -0.682074053333115     
   ------- Leaving GDM -- hopefully with a step in the right direction! --------
 
   12    -419.1984463583      6.04E-01  Gap = -3.46 eV  Descent step
 
   ------------------- Entering Geometric Direct Minimization ------------------
   GDM::trust : actual energy change is       -0.655758342179695     
   GDM::trust : predicted energy change was   -0.132699853706732     
   GDM::trust : updated trust radius is        0.330000000000000     
   GDM:         diagonal hessian shift is      0.000000000000000E+000
   GDM::PreWSS: input subspace size is                 12
   GDM::PreWSS: working subspace size set to           12
   GDM::PrEWSS: # of linearly dependent vectors =            0
   GDM::PrEWSS: Max dev from orthonormality =   6.198631885556694E-012
   GDM::BFGS:   lowest Hinv e-value    0.162614968334888     
   GDM::BFGS:   highest Hinv e-value    4.38388020429376     
   GDM::      : max scaling in EWCs is          2.82842712474619     
   GDM::      : max rotation in step is        0.212417034512806     
   GDM::        grad.step =  -0.588660257745652     
   ------- Leaving GDM -- hopefully with a step in the right direction! --------
 
   13    -419.8542047005      6.00E-01  Gap = -3.46 eV  Descent step
 
   ------------------- Entering Geometric Direct Minimization ------------------
   GDM::trust : actual energy change is       -0.559468185461185     
   GDM::trust : predicted energy change was   -0.133230153397252     
   GDM::trust : updated trust radius is        0.330000000000000     
   GDM:         diagonal hessian shift is      0.000000000000000E+000
   GDM::PreWSS: input subspace size is                 13
   GDM::PreWSS: working subspace size set to           13
   GDM::PrEWSS: # of linearly dependent vectors =            0
   GDM::PrEWSS: Max dev from orthonormality =   8.303161977418760E-012
   GDM::BFGS:   lowest Hinv e-value    0.152661781293324     
   GDM::BFGS:   highest Hinv e-value    3.82032277999572     
   GDM::      : max scaling in EWCs is          2.82842712474619     
   GDM::      : max rotation in step is        0.356887133179311     
   GDM::        grad.step =  -0.543598921802614     
   ------- Leaving GDM -- hopefully with a step in the right direction! --------
 
   14    -420.4136728859      6.89E-01  Gap = -3.46 eV  Descent step
 
   ------------------- Entering Geometric Direct Minimization ------------------
   GDM::trust : actual energy change is       -0.508125530057839     
   GDM::trust : predicted energy change was   -0.131645108286742     
   GDM::trust : updated trust radius is        0.330000000000000     
   GDM:         diagonal hessian shift is      0.000000000000000E+000
   GDM::PreWSS: input subspace size is                 14
   GDM::PreWSS: working subspace size set to           14
   GDM::PrEWSS: # of linearly dependent vectors =            0
   GDM::PrEWSS: Max dev from orthonormality =   1.342327637932073E-011
   GDM::BFGS:   lowest Hinv e-value    0.138382423354441     
   GDM::BFGS:   highest Hinv e-value    3.51748959935034     
   GDM::      : max scaling in EWCs is          2.82842712474619     
   GDM::      : max rotation in step is        0.538107323603836     
   GDM::        grad.step =  -0.521164783418699     
   ------- Leaving GDM -- hopefully with a step in the right direction! --------
 
   15    -420.9217984160      9.10E-01  Gap = -3.46 eV  Descent step
 
   ------------------- Entering Geometric Direct Minimization ------------------
   GDM::trust : actual energy change is       -0.467088796556709     
   GDM::trust : predicted energy change was   -0.145107177672036     
   GDM::trust : updated trust radius is        0.330000000000000     
   GDM:         diagonal hessian shift is      0.000000000000000E+000
   GDM::PreWSS: input subspace size is                 15
   GDM::PreWSS: working subspace size set to           15
   GDM::PrEWSS: # of linearly dependent vectors =            0
   GDM::PrEWSS: Max dev from orthonormality =   1.756728963686616E-011
   GDM::BFGS:   lowest Hinv e-value    0.162952110983609     
   GDM::BFGS:   highest Hinv e-value    4.41471427144578     
   GDM::      : max scaling in EWCs is          2.82842712474619     
   GDM::      : max rotation in step is       -0.283677738535015     
   GDM::        grad.step =  -0.365069791272079     
   ------- Leaving GDM -- hopefully with a step in the right direction! --------
 
   16    -421.3888872126      5.17E-01  Gap = -3.46 eV  Descent step
 
   ------------------- Entering Geometric Direct Minimization ------------------
   GDM::trust : actual energy change is       -0.340187076122277     
   GDM::trust : predicted energy change was   -0.144175534863453     
   GDM::trust : updated trust radius is        0.330000000000000     
   GDM:         diagonal hessian shift is      0.000000000000000E+000
   GDM::PreWSS: input subspace size is                 16
   GDM::PreWSS: working subspace size set to           16
   GDM::PrEWSS: # of linearly dependent vectors =            0
   GDM::PrEWSS: Max dev from orthonormality =   9.785294102782061E-012
   GDM::BFGS:   lowest Hinv e-value    0.161310533368796     
   GDM::BFGS:   highest Hinv e-value    5.89477477268971     
   GDM::      : max scaling in EWCs is          2.82842712474619     
   GDM::      : max rotation in step is       -0.714706404595087     
   GDM::        grad.step =  -0.397639255663341     
   ------- Leaving GDM -- hopefully with a step in the right direction! --------
 
   17    -421.7290742887      9.23E-01  Gap = -3.46 eV  Descent step
 
   ------------------- Entering Geometric Direct Minimization ------------------
   GDM::trust : actual energy change is       -0.290170889350577     
   GDM::trust : predicted energy change was   -0.140793204628211     
   GDM::trust : updated trust radius is        0.330000000000000     
   GDM:         diagonal hessian shift is      0.000000000000000E+000
   GDM::PreWSS: input subspace size is                 17
   GDM::PreWSS: working subspace size set to           17
   GDM::PrEWSS: # of linearly dependent vectors =            0
   GDM::PrEWSS: Max dev from orthonormality =   1.349435840847235E-011
   GDM::BFGS:   lowest Hinv e-value    0.187833761794754     
   GDM::BFGS:   highest Hinv e-value    3.94077661500480     
   GDM::      : max scaling in EWCs is          2.82842712474619     
   GDM::      : max rotation in step is       -0.196546506512134     
   GDM::        grad.step =  -0.192123617137779     
   ------- Leaving GDM -- hopefully with a step in the right direction! --------
 
   18    -422.0192451780      1.81E-01  Gap = -3.46 eV  Descent step
 
   ------------------- Entering Geometric Direct Minimization ------------------
   GDM::trust : actual energy change is       -0.126508515974876     
   GDM::trust : predicted energy change was   -0.175388127497693     
   GDM::trust : updated trust radius is        0.330000000000000     
   GDM:         diagonal hessian shift is      0.000000000000000E+000
   GDM::PreWSS: input subspace size is                 18
   GDM::PreWSS: working subspace size set to           18
   GDM::PrEWSS: # of linearly dependent vectors =            0
   GDM::PrEWSS: Max dev from orthonormality =   7.784266287114150E-012
   GDM::BFGS:   lowest Hinv e-value    0.181554468874978     
   GDM::BFGS:   highest Hinv e-value    4.55450598884142     
   GDM::      : max scaling in EWCs is          2.82842712474619     
   GDM::      : max rotation in step is       -0.413805602307484     
   GDM::        grad.step =  -0.201944703887078     
   ------- Leaving GDM -- hopefully with a step in the right direction! --------
 
   19    -422.1457536940      2.71E-01  Gap = -3.46 eV  Descent step
 
   ------------------- Entering Geometric Direct Minimization ------------------
   GDM::trust : actual energy change is       -8.096941516157585E-003
   GDM::trust : predicted energy change was   -0.256780077697921     
   GDM::trust : updated trust radius is        0.330000000000000     
   GDM:         diagonal hessian shift is      0.000000000000000E+000
   GDM::PreWSS: input subspace size is                 19
   GDM::PreWSS: working subspace size set to           18
   GDM::PrEWSS: # of linearly dependent vectors =            0
   GDM::PrEWSS: Max dev from orthonormality =   1.049917791595689E-011
   GDM::BFGS:   lowest Hinv e-value    0.134044591060922     
   GDM::BFGS:   highest Hinv e-value    5.08261760502105     
   GDM::      : max scaling in EWCs is          2.82842712474619     
   GDM::      : max rotation in step is        0.445931244128215     
   GDM::        grad.step =  -0.406054563649746     
   ------- Leaving GDM -- hopefully with a step in the right direction! --------
 
   20    -422.1538506355      5.88E-01  Gap = -3.46 eV  Descent step
 
   ------------------- Entering Geometric Direct Minimization ------------------
   GDM::trust : actual energy change is       -5.698180401566333E-002
   GDM::trust : predicted energy change was   -0.477425483924137     
   GDM::trust : updated trust radius is        0.330000000000000     
   GDM:         diagonal hessian shift is      0.000000000000000E+000
   GDM::PreWSS: input subspace size is                 19
   GDM::PreWSS: working subspace size set to           18
   GDM::PrEWSS: # of linearly dependent vectors =            0
   GDM::PrEWSS: Max dev from orthonormality =   6.987238912459226E-012
   GDM::BFGS:   lowest Hinv e-value    0.112599886052061     
   GDM::BFGS:   highest Hinv e-value    4.45831210833472     
   GDM::      : max scaling in EWCs is          2.82842712474619     
   GDM::      : max rotation in step is       -0.673552103650563     
   GDM::        grad.step =  -0.365227944175725     
   ------- Leaving GDM -- hopefully with a step in the right direction! --------
 
   21    -422.2108324395      7.99E-01  Gap = -3.46 eV  Descent step
 
   ------------------- Entering Geometric Direct Minimization ------------------
   GDM::trust : actual energy change is        6.035900176641462E-003
   GDM::trust : predicted energy change was   -0.498816417534191     
   GDM::trust : updated trust radius is        0.108900000000000     
   GDM::search:  On step            1 .  The current bracket is:
       left   : x =  0.0000E+00, e =      -422.2108324395, g = -0.4656E+00
       current: x =  0.7844E+00, e =      -422.2047965394, g =  0.4033E+00
       right  : x =  0.1000E+04, e =      1000.0000000000, g =  0.1000E+04
       next   : x =  0.3858E+00
   GDM::      : max rotation in step is       -0.331300844202394     
   ------- Leaving GDM -- hopefully with a step in the right direction! --------
 
   22    -422.2047965394      4.31E-02  Gap = -3.46 eV  Line search: overstep
 
   ------------------- Entering Geometric Direct Minimization ------------------
   GDM::trust : actual energy change is       -9.020139604632504E-002
   GDM::trust : predicted energy change was   -0.498816417534191     
   GDM::trust : updated trust radius is        0.108900000000000     
   GDM:         diagonal hessian shift is      0.000000000000000E+000
   GDM::PreWSS: input subspace size is                 19
   GDM::PreWSS: working subspace size set to           18
   GDM::PrEWSS: # of linearly dependent vectors =            0
   GDM::PrEWSS: Max dev from orthonormality =   3.975937634681515E-012
   GDM::BFGS:   lowest Hinv e-value    0.183275818688769     
   GDM::BFGS:   highest Hinv e-value    4.66110924430622     
   GDM::      : max scaling in EWCs is          2.82842712474619     
   GDM::      : max rotation in step is       -0.101437674434658     
   GDM::        grad.step =  -3.959855172100724E-002
   ------- Leaving GDM -- hopefully with a step in the right direction! --------
 
   23    -422.3010338356      1.57E-01  Gap = -3.46 eV  Descent step
 
   ------------------- Entering Geometric Direct Minimization ------------------
   GDM::trust : actual energy change is       -3.511034920171596E-002
   GDM::trust : predicted energy change was   -1.787274924891202E-002
   GDM::trust : updated trust radius is        0.330000000000000     
   GDM:         diagonal hessian shift is      0.000000000000000E+000
   GDM::PreWSS: input subspace size is                 19
   GDM::PreWSS: working subspace size set to           18
   GDM::PrEWSS: # of linearly dependent vectors =            0
   GDM::PrEWSS: Max dev from orthonormality =   2.574926383225318E-012
   GDM::BFGS:   lowest Hinv e-value    0.159226150867600     
   GDM::BFGS:   highest Hinv e-value    4.70109604812933     
   GDM::trust : dogleg step length is          0.330000000000000     
   GDM::      : max scaling in EWCs is          2.82842712474619     
   GDM::      : max rotation in step is       -0.403458954627048     
   GDM::        grad.step =  -0.101948459505091     
   ------- Leaving GDM -- hopefully with a step in the right direction! --------
 
   24    -422.3361441848      1.32E-01  Gap = -3.46 eV  Dog-leg BFGS step
 
   ------------------- Entering Geometric Direct Minimization ------------------
   GDM::trust : actual energy change is       -5.631743483303353E-002
   GDM::trust : predicted energy change was   -0.134162395606321     
   GDM::trust : updated trust radius is        0.330000000000000     
   GDM:         diagonal hessian shift is      0.000000000000000E+000
   GDM::PreWSS: input subspace size is                 19
   GDM::PreWSS: working subspace size set to           18
   GDM::PrEWSS: # of linearly dependent vectors =            0
   GDM::PrEWSS: Max dev from orthonormality =   3.373974710729755E-012
   GDM::BFGS:   lowest Hinv e-value    0.150196746189767     
   GDM::BFGS:   highest Hinv e-value    5.34780564823929     
   GDM::      : max scaling in EWCs is          2.82842712474619     
   GDM::      : max rotation in step is       -0.281753646581498     
   GDM::        grad.step =  -6.265924246059884E-002
   ------- Leaving GDM -- hopefully with a step in the right direction! --------
 
   25    -422.3924616196      1.36E-01  Gap = -3.46 eV  Normal BFGS step
 
   ------------------- Entering Geometric Direct Minimization ------------------
   GDM::trust : actual energy change is       -2.630171958242045E-002
   GDM::trust : predicted energy change was   -9.398886369089829E-002
   GDM::trust : updated trust radius is        0.330000000000000     
   GDM:         diagonal hessian shift is      0.000000000000000E+000
   GDM::PreWSS: input subspace size is                 19
   GDM::PreWSS: working subspace size set to           18
   GDM::PrEWSS: # of linearly dependent vectors =            0
   GDM::PrEWSS: Max dev from orthonormality =   5.810438935549556E-012
   GDM::BFGS:   lowest Hinv e-value    0.178723012010819     
   GDM::BFGS:   highest Hinv e-value    5.20501198210423     
   GDM::trust : dogleg step length is          0.330000000000000     
   GDM::      : max scaling in EWCs is          2.82842712474619     
   GDM::      : max rotation in step is       -0.319189497293272     
   GDM::        grad.step =  -7.615727996420599E-002
   ------- Leaving GDM -- hopefully with a step in the right direction! --------
 
   26    -422.4187633392      1.13E-01  Gap = -3.46 eV  Dog-leg BFGS step
 
   ------------------- Entering Geometric Direct Minimization ------------------
   GDM::trust : actual energy change is        6.984690792739912E-002
   GDM::trust : predicted energy change was   -0.118310868686405     
   GDM::trust : updated trust radius is        0.108900000000000     
   GDM::search:  On step            1 .  The current bracket is:
       left   : x =  0.0000E+00, e =      -422.4187633392, g = -0.1173E+00
       current: x =  0.6491E+00, e =      -422.3489164313, g =  0.3258E+00
       right  : x =  0.1000E+04, e =      1000.0000000000, g =  0.1000E+04
       next   : x =  0.1693E+00
   GDM::      : max rotation in step is       -8.324625566577855E-002
   ------- Leaving GDM -- hopefully with a step in the right direction! --------
 
   27    -422.3489164313      2.62E-02  Gap = -3.46 eV  Line search: overstep
 
   ------------------- Entering Geometric Direct Minimization ------------------
   GDM::trust : actual energy change is       -1.018289297297770E-002
   GDM::trust : predicted energy change was   -0.118310868686405     
   GDM::trust : updated trust radius is        0.108900000000000     
   GDM:         diagonal hessian shift is      0.000000000000000E+000
   GDM::PreWSS: input subspace size is                 19
   GDM::PreWSS: working subspace size set to           18
   GDM::PrEWSS: # of linearly dependent vectors =            0
   GDM::PrEWSS: Max dev from orthonormality =   1.028125501401078E-012
   GDM::BFGS:   lowest Hinv e-value    0.144452489477184     
   GDM::BFGS:   highest Hinv e-value    5.25426168434286     
   GDM::      : max scaling in EWCs is          2.82842712474619     
   GDM::      : max rotation in step is        0.117602501234467     
   GDM::        grad.step =  -2.153921210189131E-002
   ------- Leaving GDM -- hopefully with a step in the right direction! --------
 
   28    -422.4289462322      8.52E-02  Gap = -3.46 eV  Descent step
 
   ------------------- Entering Geometric Direct Minimization ------------------
   GDM::trust : actual energy change is       -5.021576795627425E-003
   GDM::trust : predicted energy change was   -2.563549670284458E-002
   GDM::trust : updated trust radius is        0.330000000000000     
   GDM:         diagonal hessian shift is      0.000000000000000E+000
   GDM::PreWSS: input subspace size is                 19
   GDM::PreWSS: working subspace size set to           18
   GDM::PrEWSS: # of linearly dependent vectors =            0
   GDM::PrEWSS: Max dev from orthonormality =   6.927652895782899E-013
   GDM::BFGS:   lowest Hinv e-value    0.147724396520851     
   GDM::BFGS:   highest Hinv e-value    5.30756310708354     
   GDM::      : max scaling in EWCs is          2.82842712474619     
   GDM::      : max rotation in step is       -0.178249884354110     
   GDM::        grad.step =  -2.967155592240750E-002
   ------- Leaving GDM -- hopefully with a step in the right direction! --------
 
   29    -422.4339678090      1.13E-01  Gap = -3.46 eV  Normal BFGS step
 
   ------------------- Entering Geometric Direct Minimization ------------------
   GDM::trust : actual energy change is       -1.027696002381617E-002
   GDM::trust : predicted energy change was   -4.450733388361123E-002
   GDM::trust : updated trust radius is        0.330000000000000     
   GDM:         diagonal hessian shift is      0.000000000000000E+000
   GDM::PreWSS: input subspace size is                 19
   GDM::PreWSS: working subspace size set to           18
   GDM::PrEWSS: # of linearly dependent vectors =            0
   GDM::PrEWSS: Max dev from orthonormality =   4.480894821856651E-013
   GDM::BFGS:   lowest Hinv e-value    0.151393419418183     
   GDM::BFGS:   highest Hinv e-value    4.97246547920350     
   GDM::      : max scaling in EWCs is          2.82842712474619     
   GDM::      : max rotation in step is       -0.101287142797166     
   GDM::        grad.step =  -1.954561577851370E-002
   ------- Leaving GDM -- hopefully with a step in the right direction! --------
 
   30    -422.4442447690      5.85E-02  Gap = -3.46 eV  Normal BFGS step
 
   ------------------- Entering Geometric Direct Minimization ------------------
   GDM::trust : actual energy change is        4.764711008533595E-003
   GDM::trust : predicted energy change was   -2.931842366777054E-002
   GDM::trust : updated trust radius is        0.108900000000000     
   GDM::search:  On step            1 .  The current bracket is:
       left   : x =  0.0000E+00, e =      -422.4442447690, g = -0.8950E-01
       current: x =  0.2184E+00, e =      -422.4394800580, g =  0.1330E+00
       right  : x =  0.1000E+04, e =      1000.0000000000, g =  0.1000E+04
       next   : x =  0.8779E-01
   GDM::      : max rotation in step is       -4.071766689437654E-002
   ------- Leaving GDM -- hopefully with a step in the right direction! --------
 
   31    -422.4394800580      1.20E-02  Gap = -3.46 eV  Line search: overstep
 
   ------------------- Entering Geometric Direct Minimization ------------------
   GDM::trust : actual energy change is       -3.933020009412758E-003
   GDM::trust : predicted energy change was   -2.931842366777054E-002
   GDM::trust : updated trust radius is        0.108900000000000     
   GDM:         diagonal hessian shift is      0.000000000000000E+000
   GDM::PreWSS: input subspace size is                 19
   GDM::PreWSS: working subspace size set to           18
   GDM::PrEWSS: # of linearly dependent vectors =            0
   GDM::PrEWSS: Max dev from orthonormality =   4.675530795861249E-013
   GDM::BFGS:   lowest Hinv e-value    0.138011593135528     
   GDM::BFGS:   highest Hinv e-value    4.22715363944122     
   GDM::trust : dogleg step length is          0.108900000000000     
   GDM::      : max scaling in EWCs is          2.82842712474619     
   GDM::      : max rotation in step is        0.113330801193949     
   GDM::        grad.step =  -9.442496223561709E-003
   ------- Leaving GDM -- hopefully with a step in the right direction! --------
 
   32    -422.4481777890      4.19E-02  Gap = -3.46 eV  Dog-leg BFGS step
 
   ------------------- Entering Geometric Direct Minimization ------------------
   GDM::trust : actual energy change is       -2.025297732984654E-003
   GDM::trust : predicted energy change was   -1.470656589217259E-002
   GDM::trust : updated trust radius is        0.108900000000000     
   GDM:         diagonal hessian shift is      0.000000000000000E+000
   GDM::PreWSS: input subspace size is                 19
   GDM::PreWSS: working subspace size set to           18
   GDM::PrEWSS: # of linearly dependent vectors =            0
   GDM::PrEWSS: Max dev from orthonormality =   2.770665641360637E-013
   GDM::BFGS:   lowest Hinv e-value    0.163036236916849     
   GDM::BFGS:   highest Hinv e-value    4.64155765286144     
   GDM::      : max scaling in EWCs is          2.82842712474619     
   GDM::      : max rotation in step is       -6.912438177095309E-002
   GDM::        grad.step =  -6.954088897275224E-003
   ------- Leaving GDM -- hopefully with a step in the right direction! --------
 
   33    -422.4502030867      4.29E-02  Gap = -3.46 eV  Normal BFGS step
 
   ------------------- Entering Geometric Direct Minimization ------------------
   GDM::trust : actual energy change is       -2.403813866465043E-003
   GDM::trust : predicted energy change was   -1.043113334591283E-002
   GDM::trust : updated trust radius is        0.330000000000000     
   GDM:         diagonal hessian shift is      0.000000000000000E+000
   GDM::PreWSS: input subspace size is                 19
   GDM::PreWSS: working subspace size set to           18
   GDM::PrEWSS: # of linearly dependent vectors =            0
   GDM::PrEWSS: Max dev from orthonormality =   3.942974419191003E-013
   GDM::BFGS:   lowest Hinv e-value    0.169068364925985     
   GDM::BFGS:   highest Hinv e-value    3.90115312608096     
   GDM::      : max scaling in EWCs is          2.82842712474619     
   GDM::      : max rotation in step is       -9.029833476797340E-002
   GDM::        grad.step =  -8.190982966008542E-003
   ------- Leaving GDM -- hopefully with a step in the right direction! --------
 
   34    -422.4526069006      3.86E-02  Gap = -3.46 eV  Normal BFGS step
 
   ------------------- Entering Geometric Direct Minimization ------------------
   GDM::trust : actual energy change is       -2.566252204701414E-003
   GDM::trust : predicted energy change was   -1.228647444901281E-002
   GDM::trust : updated trust radius is        0.330000000000000     
   GDM:         diagonal hessian shift is      0.000000000000000E+000
   GDM::PreWSS: input subspace size is                 19
   GDM::PreWSS: working subspace size set to           18
   GDM::PrEWSS: # of linearly dependent vectors =            0
   GDM::PrEWSS: Max dev from orthonormality =   2.548447564088008E-013
   GDM::BFGS:   lowest Hinv e-value    0.170718958528715     
   GDM::BFGS:   highest Hinv e-value    4.60938729914731     
   GDM::      : max scaling in EWCs is          2.82842712474619     
   GDM::      : max rotation in step is       -8.476102691797777E-002
   GDM::        grad.step =  -6.583993939287793E-003
   ------- Leaving GDM -- hopefully with a step in the right direction! --------
 
   35    -422.4551731528      2.58E-02  Gap = -3.46 eV  Normal BFGS step
 
   ------------------- Entering Geometric Direct Minimization ------------------
   GDM::trust : actual energy change is       -2.262955055300608E-003
   GDM::trust : predicted energy change was   -9.875990908931688E-003
   GDM::trust : updated trust radius is        0.330000000000000     
   GDM:         diagonal hessian shift is      0.000000000000000E+000
   GDM::PreWSS: input subspace size is                 19
   GDM::PreWSS: working subspace size set to           18
   GDM::PrEWSS: # of linearly dependent vectors =            0
   GDM::PrEWSS: Max dev from orthonormality =   1.935725885138240E-013
   GDM::BFGS:   lowest Hinv e-value    0.146688540066488     
   GDM::BFGS:   highest Hinv e-value    5.07445577847019     
   GDM::      : max scaling in EWCs is          2.82842712474619     
   GDM::      : max rotation in step is       -0.116648873567644     
   GDM::        grad.step =  -5.870663029755602E-003
   ------- Leaving GDM -- hopefully with a step in the right direction! --------
 
   36    -422.4574361079      3.63E-02  Gap = -3.46 eV  Normal BFGS step
 
   ------------------- Entering Geometric Direct Minimization ------------------
   GDM::trust : actual energy change is       -3.273862076127898E-003
   GDM::trust : predicted energy change was   -8.805994544633404E-003
   GDM::trust : updated trust radius is        0.330000000000000     
   GDM:         diagonal hessian shift is      0.000000000000000E+000
   GDM::PreWSS: input subspace size is                 19
   GDM::PreWSS: working subspace size set to           18
   GDM::PrEWSS: # of linearly dependent vectors =            0
   GDM::PrEWSS: Max dev from orthonormality =   3.546746230043141E-013
   GDM::BFGS:   lowest Hinv e-value    0.146648631400547     
   GDM::BFGS:   highest Hinv e-value    6.27581613301965     
   GDM::      : max scaling in EWCs is          2.82842712474619     
   GDM::      : max rotation in step is       -0.125992290397123     
   GDM::        grad.step =  -6.207622708907578E-003
   ------- Leaving GDM -- hopefully with a step in the right direction! --------
 
   37    -422.4607099699      1.77E-02  Gap = -3.46 eV  Normal BFGS step
 
   ------------------- Entering Geometric Direct Minimization ------------------
   GDM::trust : actual energy change is       -3.022158401847719E-003
   GDM::trust : predicted energy change was   -9.311434063361369E-003
   GDM::trust : updated trust radius is        0.330000000000000     
   GDM:         diagonal hessian shift is      0.000000000000000E+000
   GDM::PreWSS: input subspace size is                 19
   GDM::PreWSS: working subspace size set to           18
   GDM::PrEWSS: # of linearly dependent vectors =            0
   GDM::PrEWSS: Max dev from orthonormality =   3.706340789833007E-013
   GDM::BFGS:   lowest Hinv e-value    0.153114444318753     
   GDM::BFGS:   highest Hinv e-value    8.32302463526117     
   GDM::      : max scaling in EWCs is          2.82842712474619     
   GDM::      : max rotation in step is        0.129263926846958     
   GDM::        grad.step =  -6.274345783529494E-003
   ------- Leaving GDM -- hopefully with a step in the right direction! --------
 
   38    -422.4637321283      3.04E-02  Gap = -3.46 eV  Normal BFGS step
 
   ------------------- Entering Geometric Direct Minimization ------------------
   GDM::trust : actual energy change is       -2.422070701413759E-003
   GDM::trust : predicted energy change was   -9.411518675294238E-003
   GDM::trust : updated trust radius is        0.330000000000000     
   GDM:         diagonal hessian shift is      0.000000000000000E+000
   GDM::PreWSS: input subspace size is                 19
   GDM::PreWSS: working subspace size set to           18
   GDM::PrEWSS: # of linearly dependent vectors =            0
   GDM::PrEWSS: Max dev from orthonormality =   4.050509927466805E-013
   GDM::BFGS:   lowest Hinv e-value    0.150306848105102     
   GDM::BFGS:   highest Hinv e-value    6.19572335989678     
   GDM::      : max scaling in EWCs is          2.82842712474619     
   GDM::      : max rotation in step is        9.658095790064908E-002
   GDM::        grad.step =  -6.478367924301393E-003
   ------- Leaving GDM -- hopefully with a step in the right direction! --------
 
   39    -422.4661541990      4.07E-02  Gap = -3.46 eV  Normal BFGS step
 
   ------------------- Entering Geometric Direct Minimization ------------------
   GDM::trust : actual energy change is       -2.453827979820744E-003
   GDM::trust : predicted energy change was   -9.717551886452087E-003
   GDM::trust : updated trust radius is        0.330000000000000     
   GDM:         diagonal hessian shift is      0.000000000000000E+000
   GDM::PreWSS: input subspace size is                 19
   GDM::PreWSS: working subspace size set to           18
   GDM::PrEWSS: # of linearly dependent vectors =            0
   GDM::PrEWSS: Max dev from orthonormality =   2.295108547656355E-012
   GDM::BFGS:   lowest Hinv e-value    0.155162906130739     
   GDM::BFGS:   highest Hinv e-value    6.20788568167171     
   GDM::      : max scaling in EWCs is          2.82842712474619     
   GDM::      : max rotation in step is       -8.928611766213675E-002
   GDM::        grad.step =  -3.992736156171593E-003
   ------- Leaving GDM -- hopefully with a step in the right direction! --------
 
   40    -422.4686080270      2.96E-02  Gap = -3.46 eV  Normal BFGS step
 
   ------------------- Entering Geometric Direct Minimization ------------------
   GDM::trust : actual energy change is       -1.954300149463961E-003
   GDM::trust : predicted energy change was   -5.989104234257389E-003
   GDM::trust : updated trust radius is        0.330000000000000     
   GDM:         diagonal hessian shift is      0.000000000000000E+000
   GDM::PreWSS: input subspace size is                 19
   GDM::PreWSS: working subspace size set to           18
   GDM::PrEWSS: # of linearly dependent vectors =            0
   GDM::PrEWSS: Max dev from orthonormality =   1.454107667608895E-012
   GDM::BFGS:   lowest Hinv e-value    0.156563560355331     
   GDM::BFGS:   highest Hinv e-value    7.00401347076308     
   GDM::      : max scaling in EWCs is          2.82842712474619     
   GDM::      : max rotation in step is       -7.267377453843842E-002
   GDM::        grad.step =  -2.149217488790536E-003
   ------- Leaving GDM -- hopefully with a step in the right direction! --------
 
   41    -422.4705623272      1.70E-02  Gap = -3.46 eV  Normal BFGS step
 
   ------------------- Entering Geometric Direct Minimization ------------------
   GDM::trust : actual energy change is       -1.383094420702946E-003
   GDM::trust : predicted energy change was   -3.223826233185803E-003
   GDM::trust : updated trust radius is        0.330000000000000     
   GDM:         diagonal hessian shift is      0.000000000000000E+000
   GDM::PreWSS: input subspace size is                 19
   GDM::PreWSS: working subspace size set to           18
   GDM::PrEWSS: # of linearly dependent vectors =            0
   GDM::PrEWSS: Max dev from orthonormality =   1.281780237505359E-012
   GDM::BFGS:   lowest Hinv e-value    0.161824531789269     
   GDM::BFGS:   highest Hinv e-value    9.23778867632615     
   GDM::      : max scaling in EWCs is          2.82842712474619     
   GDM::      : max rotation in step is       -9.598241301621407E-002
   GDM::        grad.step =  -1.554551536354450E-003
   ------- Leaving GDM -- hopefully with a step in the right direction! --------
 
   42    -422.4719454216      1.05E-02  Gap = -3.46 eV  Normal BFGS step
 
   ------------------- Entering Geometric Direct Minimization ------------------
   GDM::trust : actual energy change is       -8.247745153084907E-004
   GDM::trust : predicted energy change was   -2.331827304531676E-003
   GDM::trust : updated trust radius is        0.330000000000000     
   GDM:         diagonal hessian shift is      0.000000000000000E+000
   GDM::PreWSS: input subspace size is                 19
   GDM::PreWSS: working subspace size set to           18
   GDM::PrEWSS: # of linearly dependent vectors =            0
   GDM::PrEWSS: Max dev from orthonormality =   1.693485629505886E-012
   GDM::BFGS:   lowest Hinv e-value    0.160886500950873     
   GDM::BFGS:   highest Hinv e-value    9.39467402275247     
   GDM::      : max scaling in EWCs is          2.82842712474619     
   GDM::      : max rotation in step is        3.952332179719198E-002
   GDM::        grad.step =  -8.022390416889484E-004
   ------- Leaving GDM -- hopefully with a step in the right direction! --------
 
   43    -422.4727701961      9.87E-03  Gap = -3.46 eV  Normal BFGS step
 
   ------------------- Entering Geometric Direct Minimization ------------------
   GDM::trust : actual energy change is       -3.104651152625593E-004
   GDM::trust : predicted energy change was   -1.203358562533422E-003
   GDM::trust : updated trust radius is        0.330000000000000     
   GDM:         diagonal hessian shift is      0.000000000000000E+000
   GDM::PreWSS: input subspace size is                 19
   GDM::PreWSS: working subspace size set to           18
   GDM::PrEWSS: # of linearly dependent vectors =            0
   GDM::PrEWSS: Max dev from orthonormality =   1.329253547510678E-012
   GDM::BFGS:   lowest Hinv e-value    0.148093588564595     
   GDM::BFGS:   highest Hinv e-value    9.88981009510754     
   GDM::      : max scaling in EWCs is          2.82842712474619     
   GDM::      : max rotation in step is       -1.892152026097187E-002
   GDM::        grad.step =  -3.668969389470599E-004
   ------- Leaving GDM -- hopefully with a step in the right direction! --------
 
   44    -422.4730806612      9.72E-03  Gap = -3.46 eV  Normal BFGS step
 
   ------------------- Entering Geometric Direct Minimization ------------------
   GDM::trust : actual energy change is       -1.806076978141391E-004
   GDM::trust : predicted energy change was   -5.503454084205900E-004
   GDM::trust : updated trust radius is        0.330000000000000     
   GDM:         diagonal hessian shift is      0.000000000000000E+000
   GDM::PreWSS: input subspace size is                 19
   GDM::PreWSS: working subspace size set to           18
   GDM::PrEWSS: # of linearly dependent vectors =            0
   GDM::PrEWSS: Max dev from orthonormality =   1.519055714549467E-012
   GDM::BFGS:   lowest Hinv e-value    0.150524763098047     
   GDM::BFGS:   highest Hinv e-value    10.0418754296380     
   GDM::      : max scaling in EWCs is          2.82842712474619     
   GDM::      : max rotation in step is       -1.410417270665829E-002
   GDM::        grad.step =  -1.100223373506501E-004
   ------- Leaving GDM -- hopefully with a step in the right direction! --------
 
   45    -422.4732612689      5.00E-03  Gap = -3.46 eV  Normal BFGS step
 
   ------------------- Entering Geometric Direct Minimization ------------------
   GDM::trust : actual energy change is       -5.197180763616416E-005
   GDM::trust : predicted energy change was   -1.650335060259751E-004
   GDM::trust : updated trust radius is        0.330000000000000     
   GDM:         diagonal hessian shift is      0.000000000000000E+000
   GDM::PreWSS: input subspace size is                 19
   GDM::PreWSS: working subspace size set to           18
   GDM::PrEWSS: # of linearly dependent vectors =            0
   GDM::PrEWSS: Max dev from orthonormality =   2.018808731296673E-012
   GDM::BFGS:   lowest Hinv e-value    0.145254408500667     
   GDM::BFGS:   highest Hinv e-value    10.7677216740421     
   GDM::      : max scaling in EWCs is          2.82842712474619     
   GDM::      : max rotation in step is       -1.714551370762290E-002
   GDM::        grad.step =  -6.042688099490358E-005
   ------- Leaving GDM -- hopefully with a step in the right direction! --------
 
   46    -422.4733132407      3.59E-03  Gap = -3.46 eV  Normal BFGS step
 
   ------------------- Entering Geometric Direct Minimization ------------------
   GDM::trust : actual energy change is       -2.764225587270630E-005
   GDM::trust : predicted energy change was   -9.064032149235537E-005
   GDM::trust : updated trust radius is        0.330000000000000     
   GDM:         diagonal hessian shift is      0.000000000000000E+000
   GDM::PreWSS: input subspace size is                 19
   GDM::PreWSS: working subspace size set to           18
   GDM::PrEWSS: # of linearly dependent vectors =            0
   GDM::PrEWSS: Max dev from orthonormality =   2.345762473154878E-012
   GDM::BFGS:   lowest Hinv e-value    0.136444472270717     
   GDM::BFGS:   highest Hinv e-value    10.1398459526264     
   GDM::      : max scaling in EWCs is          2.82842712474619     
   GDM::      : max rotation in step is       -2.549891048336881E-002
   GDM::        grad.step =  -7.177836980438064E-005
   ------- Leaving GDM -- hopefully with a step in the right direction! --------
 
   47    -422.4733408830      3.12E-03  Gap = -3.46 eV  Normal BFGS step
 
   ------------------- Entering Geometric Direct Minimization ------------------
   GDM::trust : actual energy change is       -1.444889329604848E-005
   GDM::trust : predicted energy change was   -1.076675547065710E-004
   GDM::trust : updated trust radius is        0.330000000000000     
   GDM:         diagonal hessian shift is      0.000000000000000E+000
   GDM::PreWSS: input subspace size is                 19
   GDM::PreWSS: working subspace size set to           18
   GDM::PrEWSS: # of linearly dependent vectors =            0
   GDM::PrEWSS: Max dev from orthonormality =   3.005595772265224E-012
   GDM::BFGS:   lowest Hinv e-value    0.140406557208792     
   GDM::BFGS:   highest Hinv e-value    10.4506713883147     
   GDM::      : max scaling in EWCs is          2.82842712474619     
   GDM::      : max rotation in step is       -7.860127733059023E-003
   GDM::        grad.step =  -3.960474662726058E-005
   ------- Leaving GDM -- hopefully with a step in the right direction! --------
 
   48    -422.4733553319      1.85E-03  Gap = -3.46 eV  Normal BFGS step
 
   ------------------- Entering Geometric Direct Minimization ------------------
   GDM::trust : actual energy change is       -2.199624555032642E-005
   GDM::trust : predicted energy change was   -5.940711994089089E-005
   GDM::trust : updated trust radius is        0.330000000000000     
   GDM:         diagonal hessian shift is      0.000000000000000E+000
   GDM::PreWSS: input subspace size is                 19
   GDM::PreWSS: working subspace size set to           18
   GDM::PrEWSS: # of linearly dependent vectors =            0
   GDM::PrEWSS: Max dev from orthonormality =   7.803917234650015E-012
   GDM::BFGS:   lowest Hinv e-value    0.148747657884399     
   GDM::BFGS:   highest Hinv e-value    10.4273891491852     
   GDM::      : max scaling in EWCs is          2.82842712474619     
   GDM::      : max rotation in step is       -4.514318929403205E-003
   GDM::        grad.step =  -1.307690872711416E-005
   ------- Leaving GDM -- hopefully with a step in the right direction! --------
 
   49    -422.4733773281      1.17E-03  Gap = -3.46 eV  Normal BFGS step
 
   ------------------- Entering Geometric Direct Minimization ------------------
   GDM::trust : actual energy change is       -7.323544309656427E-006
   GDM::trust : predicted energy change was   -1.961536309067124E-005
   GDM::trust : updated trust radius is        0.330000000000000     
   GDM:         diagonal hessian shift is      0.000000000000000E+000
   GDM::PreWSS: input subspace size is                 19
   GDM::PreWSS: working subspace size set to           18
   GDM::PrEWSS: # of linearly dependent vectors =            0
   GDM::PrEWSS: Max dev from orthonormality =   1.375340813458692E-012
   GDM::BFGS:   lowest Hinv e-value    0.145157094267107     
   GDM::BFGS:   highest Hinv e-value    10.6873225488366     
   GDM::      : max scaling in EWCs is          2.82842712474619     
   GDM::      : max rotation in step is       -1.045345711414532E-002
   GDM::        grad.step =  -1.334132160204119E-005
   ------- Leaving GDM -- hopefully with a step in the right direction! --------
 
   50    -422.4733846517      1.22E-03  Gap = -3.46 eV  Normal BFGS step
 
   ------------------- Entering Geometric Direct Minimization ------------------
   GDM::trust : actual energy change is       -5.934416094532935E-006
   GDM::trust : predicted energy change was   -2.001198240306178E-005
   GDM::trust : updated trust radius is        0.330000000000000     
   GDM:         diagonal hessian shift is      0.000000000000000E+000
   GDM::PreWSS: input subspace size is                 19
   GDM::PreWSS: working subspace size set to           18
   GDM::PrEWSS: # of linearly dependent vectors =            0
   GDM::PrEWSS: Max dev from orthonormality =   2.746840949141571E-011
   GDM::BFGS:   lowest Hinv e-value    0.144487469236124     
   GDM::BFGS:   highest Hinv e-value    12.4599115418898     
   GDM::      : max scaling in EWCs is          2.82842712474619     
   GDM::      : max rotation in step is       -8.153902915518050E-003
   GDM::        grad.step =  -1.083409847517513E-005
   ------- Leaving GDM -- hopefully with a step in the right direction! --------
 
   51    -422.4733905861      1.02E-03  Gap = -3.46 eV  Normal BFGS step
 
   ------------------- Entering Geometric Direct Minimization ------------------
   GDM::trust : actual energy change is       -5.157218879503489E-006
   GDM::trust : predicted energy change was   -1.625114771276269E-005
   GDM::trust : updated trust radius is        0.330000000000000     
   GDM:         diagonal hessian shift is      0.000000000000000E+000
   GDM::PreWSS: input subspace size is                 19
   GDM::PreWSS: working subspace size set to           18
   GDM::PrEWSS: # of linearly dependent vectors =            0
   GDM::PrEWSS: Max dev from orthonormality =   1.432503421439080E-011
   GDM::BFGS:   lowest Hinv e-value    0.155973198090696     
   GDM::BFGS:   highest Hinv e-value    13.4857456887905     
   GDM::      : max scaling in EWCs is          2.82842712474619     
   GDM::      : max rotation in step is       -6.271722748634801E-003
   GDM::        grad.step =  -7.655074913800309E-006
   ------- Leaving GDM -- hopefully with a step in the right direction! --------
 
   52    -422.4733957433      9.76E-04  Gap = -3.46 eV  Normal BFGS step
 
   ------------------- Entering Geometric Direct Minimization ------------------
   GDM::trust : actual energy change is       -4.730058435598039E-006
   GDM::trust : predicted energy change was   -1.148261237070046E-005
   GDM::trust : updated trust radius is        0.330000000000000     
   GDM:         diagonal hessian shift is      0.000000000000000E+000
   GDM::PreWSS: input subspace size is                 19
   GDM::PreWSS: working subspace size set to           18
   GDM::PrEWSS: # of linearly dependent vectors =            0
   GDM::PrEWSS: Max dev from orthonormality =   3.822157867983123E-012
   GDM::BFGS:   lowest Hinv e-value    0.165035484057800     
   GDM::BFGS:   highest Hinv e-value    14.4747873193632     
   GDM::      : max scaling in EWCs is          2.82842712474619     
   GDM::      : max rotation in step is       -8.537255221767008E-003
   GDM::        grad.step =  -7.727396502843866E-006
   ------- Leaving GDM -- hopefully with a step in the right direction! --------
 
   53    -422.4734004734      1.13E-03  Gap = -3.46 eV  Normal BFGS step
 
   ------------------- Entering Geometric Direct Minimization ------------------
   GDM::trust : actual energy change is       -5.100474538721755E-006
   GDM::trust : predicted energy change was   -1.159109475426580E-005
   GDM::trust : updated trust radius is        0.330000000000000     
   GDM:         diagonal hessian shift is      0.000000000000000E+000
   GDM::PreWSS: input subspace size is                 19
   GDM::PreWSS: working subspace size set to           18
   GDM::PrEWSS: # of linearly dependent vectors =            0
   GDM::PrEWSS: Max dev from orthonormality =   5.595780783185234E-012
   GDM::BFGS:   lowest Hinv e-value    0.165375079537241     
   GDM::BFGS:   highest Hinv e-value    19.4615862954856     
   GDM::      : max scaling in EWCs is          2.82842712474619     
   GDM::      : max rotation in step is       -1.229449918563455E-002
   GDM::        grad.step =  -5.429618915925034E-006
   ------- Leaving GDM -- hopefully with a step in the right direction! --------
 
   54    -422.4734055738      7.90E-04  Gap = -3.46 eV  Normal BFGS step
 
   ------------------- Entering Geometric Direct Minimization ------------------
   GDM::trust : actual energy change is       -3.724146949934948E-006
   GDM::trust : predicted energy change was   -8.144428373887551E-006
   GDM::trust : updated trust radius is        0.330000000000000     
   GDM:         diagonal hessian shift is      0.000000000000000E+000
   GDM::PreWSS: input subspace size is                 19
   GDM::PreWSS: working subspace size set to           18
   GDM::PrEWSS: # of linearly dependent vectors =            0
   GDM::PrEWSS: Max dev from orthonormality =   7.939308238613663E-011
   GDM::BFGS:   lowest Hinv e-value    0.167297742322382     
   GDM::BFGS:   highest Hinv e-value    24.6961840235331     
   GDM::      : max scaling in EWCs is          2.82842712474619     
   GDM::      : max rotation in step is       -1.064811028007385E-002
   GDM::        grad.step =  -3.654246846110254E-006
   ------- Leaving GDM -- hopefully with a step in the right direction! --------
 
   55    -422.4734092980      7.65E-04  Gap = -3.46 eV  Normal BFGS step
 
   ------------------- Entering Geometric Direct Minimization ------------------
   GDM::trust : actual energy change is       -2.315288782028802E-006
   GDM::trust : predicted energy change was   -5.481370269165383E-006
   GDM::trust : updated trust radius is        0.330000000000000     
   GDM:         diagonal hessian shift is      0.000000000000000E+000
   GDM::PreWSS: input subspace size is                 19
   GDM::PreWSS: working subspace size set to           18
   GDM::PrEWSS: # of linearly dependent vectors =            0
   GDM::PrEWSS: Max dev from orthonormality =   8.065322715244960E-011
   GDM::BFGS:   lowest Hinv e-value    0.177662476761536     
   GDM::BFGS:   highest Hinv e-value    25.9177713007443     
   GDM::      : max scaling in EWCs is          2.82842712474619     
   GDM::      : max rotation in step is       -4.540354552229329E-003
   GDM::        grad.step =  -1.668157944986343E-006
   ------- Leaving GDM -- hopefully with a step in the right direction! --------
 
   56    -422.4734116133      4.58E-04  Gap = -3.46 eV  Normal BFGS step
 
   ------------------- Entering Geometric Direct Minimization ------------------
   GDM::trust : actual energy change is       -9.408420282852603E-007
   GDM::trust : predicted energy change was   -2.502236917479513E-006
   GDM::trust : updated trust radius is        0.330000000000000     
   GDM:         diagonal hessian shift is      0.000000000000000E+000
   GDM::PreWSS: input subspace size is                 19
   GDM::PreWSS: working subspace size set to           18
   GDM::PrEWSS: # of linearly dependent vectors =            0
   GDM::PrEWSS: Max dev from orthonormality =   2.244668340090072E-011
   GDM::BFGS:   lowest Hinv e-value    0.175598980146062     
   GDM::BFGS:   highest Hinv e-value    25.7535936158515     
   GDM::      : max scaling in EWCs is          2.82842712474619     
   GDM::      : max rotation in step is        1.971710857603609E-003
   GDM::        grad.step =  -8.771283951399670E-007
   ------- Leaving GDM -- hopefully with a step in the right direction! --------
 
   57    -422.4734125541      3.74E-04  Gap = -3.46 eV  Normal BFGS step
 
   ------------------- Entering Geometric Direct Minimization ------------------
   GDM::trust : actual energy change is       -3.674292656796752E-007
   GDM::trust : predicted energy change was   -1.315692592709950E-006
   GDM::trust : updated trust radius is        0.330000000000000     
   GDM:         diagonal hessian shift is      0.000000000000000E+000
   GDM::PreWSS: input subspace size is                 19
   GDM::PreWSS: working subspace size set to           18
   GDM::PrEWSS: # of linearly dependent vectors =            0
   GDM::PrEWSS: Max dev from orthonormality =   3.233521089773816E-011
   GDM::BFGS:   lowest Hinv e-value    0.177522924577736     
   GDM::BFGS:   highest Hinv e-value    24.5965852421886     
   GDM::      : max scaling in EWCs is          2.82842712474619     
   GDM::      : max rotation in step is        1.043052153116603E-003
   GDM::        grad.step =  -3.605109217262110E-007
   ------- Leaving GDM -- hopefully with a step in the right direction! --------
 
   58    -422.4734129215      1.46E-04  Gap = -3.46 eV  Normal BFGS step
 
   ------------------- Entering Geometric Direct Minimization ------------------
   GDM::trust : actual energy change is       -1.800764266590704E-007
   GDM::trust : predicted energy change was   -5.407663825893165E-007
   GDM::trust : updated trust radius is        0.330000000000000     
   GDM:         diagonal hessian shift is      0.000000000000000E+000
   GDM::PreWSS: input subspace size is                 19
   GDM::PreWSS: working subspace size set to           18
   GDM::PrEWSS: # of linearly dependent vectors =            0
   GDM::PrEWSS: Max dev from orthonormality =   4.993116684004484E-011
   GDM::BFGS:   lowest Hinv e-value    0.176189905593033     
   GDM::BFGS:   highest Hinv e-value    25.2651108509164     
   GDM::      : max scaling in EWCs is          2.82842712474619     
   GDM::      : max rotation in step is        4.674922609314767E-004
   GDM::        grad.step =  -9.709700446486002E-008
   ------- Leaving GDM -- hopefully with a step in the right direction! --------
 
   59    -422.4734131016      1.21E-04  Gap = -3.46 eV  Normal BFGS step
 
   ------------------- Entering Geometric Direct Minimization ------------------
   GDM::trust : actual energy change is       -5.626407073577866E-008
   GDM::trust : predicted energy change was   -1.456455066972901E-007
   GDM::trust : updated trust radius is        0.330000000000000     
   GDM:         diagonal hessian shift is      0.000000000000000E+000
   GDM::PreWSS: input subspace size is                 19
   GDM::PreWSS: working subspace size set to           18
   GDM::PrEWSS: # of linearly dependent vectors =            0
   GDM::PrEWSS: Max dev from orthonormality =   8.017827721196191E-012
   GDM::BFGS:   lowest Hinv e-value    0.171367457363664     
   GDM::BFGS:   highest Hinv e-value    24.6071946851216     
   GDM::      : max scaling in EWCs is          2.82842712474619     
   GDM::      : max rotation in step is       -5.324826916777711E-004
   GDM::        grad.step =  -5.066581314277055E-008
   ------- Leaving GDM -- hopefully with a step in the right direction! --------
 
   60    -422.4734131579      1.02E-04  Gap = -3.46 eV  Normal BFGS step
 
   ------------------- Entering Geometric Direct Minimization ------------------
   GDM::trust : actual energy change is       -3.507989276840817E-008
   GDM::trust : predicted energy change was   -7.599871971415581E-008
   GDM::trust : updated trust radius is        0.330000000000000     
   GDM:         diagonal hessian shift is      0.000000000000000E+000
   GDM::PreWSS: input subspace size is                 19
   GDM::PreWSS: working subspace size set to           18
   GDM::PrEWSS: # of linearly dependent vectors =            0
   GDM::PrEWSS: Max dev from orthonormality =   2.124970685524197E-011
   GDM::BFGS:   lowest Hinv e-value    0.171463909778855     
   GDM::BFGS:   highest Hinv e-value    24.5331858924714     
   GDM::      : max scaling in EWCs is          2.82842712474619     
   GDM::      : max rotation in step is       -7.010525619873648E-004
   GDM::        grad.step =  -4.651447735025201E-008
   ------- Leaving GDM -- hopefully with a step in the right direction! --------
 
   61    -422.4734131930      6.33E-05  Gap = -3.46 eV  Normal BFGS step
 
   ------------------- Entering Geometric Direct Minimization ------------------
   GDM::trust : actual energy change is       -2.837998636096017E-008
   GDM::trust : predicted energy change was   -6.977171602537803E-008
   GDM::trust : updated trust radius is        0.330000000000000     
   GDM:         diagonal hessian shift is      0.000000000000000E+000
   GDM::PreWSS: input subspace size is                 19
   GDM::PreWSS: working subspace size set to           18
   GDM::PrEWSS: # of linearly dependent vectors =            0
   GDM::PrEWSS: Max dev from orthonormality =   1.075869948685693E-010
   GDM::BFGS:   lowest Hinv e-value    0.171467751194907     
   GDM::BFGS:   highest Hinv e-value    24.9376997003174     
   GDM::      : max scaling in EWCs is          2.82842712474619     
   GDM::      : max rotation in step is       -4.330069750107424E-004
   GDM::        grad.step =  -2.095533137734925E-008
   ------- Leaving GDM -- hopefully with a step in the right direction! --------
 
   62    -422.4734132213      3.92E-05  Gap = -3.46 eV  Normal BFGS step
 
   ------------------- Entering Geometric Direct Minimization ------------------
   GDM::trust : actual energy change is       -1.192319132314879E-008
   GDM::trust : predicted energy change was   -3.143299706602387E-008
   GDM::trust : updated trust radius is        0.330000000000000     
   GDM:         diagonal hessian shift is      0.000000000000000E+000
   GDM::PreWSS: input subspace size is                 19
   GDM::PreWSS: working subspace size set to           18
   GDM::PrEWSS: # of linearly dependent vectors =            0
   GDM::PrEWSS: Max dev from orthonormality =   7.941780913456320E-012
   GDM::BFGS:   lowest Hinv e-value    0.226502345316006     
   GDM::BFGS:   highest Hinv e-value    25.6537138122894     
   GDM::      : max scaling in EWCs is          2.82842712474619     
   GDM::      : max rotation in step is       -3.421272791958931E-004
   GDM::        grad.step =  -1.786658482512186E-008
   ------- Leaving GDM -- hopefully with a step in the right direction! --------
 
   63    -422.4734132333      3.35E-05  Gap = -3.46 eV  Normal BFGS step
 
   ------------------- Entering Geometric Direct Minimization ------------------
   GDM::trust : actual energy change is       -1.173532382381381E-009
   GDM::trust : predicted energy change was   -2.679987723768278E-008
   GDM::trust : updated trust radius is        0.330000000000000     
   GDM:         diagonal hessian shift is      0.000000000000000E+000
   GDM::PreWSS: input subspace size is                 19
   GDM::PreWSS: working subspace size set to           18
   GDM::PrEWSS: # of linearly dependent vectors =            0
   GDM::PrEWSS: Max dev from orthonormality =   1.614509220759786E-011
   GDM::BFGS:   lowest Hinv e-value    0.226676737503043     
   GDM::BFGS:   highest Hinv e-value    24.4580182829847     
   GDM::      : max scaling in EWCs is          2.82842712474619     
   GDM::      : max rotation in step is       -1.416414377018932E-004
   GDM::        grad.step =  -1.670583763850575E-008
   ------- Leaving GDM -- hopefully with a step in the right direction! --------
 
   64    -422.4734132344      7.97E-05  Gap = -3.46 eV  Normal BFGS step
 
   ------------------- Entering Geometric Direct Minimization ------------------
   GDM::trust : actual energy change is       -8.785775662545348E-009
   GDM::trust : predicted energy change was   -2.505875645775863E-008
   GDM::trust : updated trust radius is        0.330000000000000     
   GDM:         diagonal hessian shift is      0.000000000000000E+000
   GDM::PreWSS: input subspace size is                 19
   GDM::PreWSS: working subspace size set to           18
   GDM::PrEWSS: # of linearly dependent vectors =            0
   GDM::PrEWSS: Max dev from orthonormality =   1.105793928646293E-011
   GDM::BFGS:   lowest Hinv e-value    0.192297328374941     
   GDM::BFGS:   highest Hinv e-value    24.1651493385220     
   GDM::      : max scaling in EWCs is          2.82842712474619     
   GDM::      : max rotation in step is        1.059385598255260E-004
   GDM::        grad.step =  -5.354720794445585E-009
   ------- Leaving GDM -- hopefully with a step in the right direction! --------
 
   65    -422.4734132432      2.93E-05  Gap = -3.46 eV  Normal BFGS step
 
   ------------------- Entering Geometric Direct Minimization ------------------
   GDM::trust : actual energy change is        1.857756615208928E-009
   GDM::trust : predicted energy change was   -8.032081191668380E-009
   GDM::trust : updated trust radius is        0.108900000000000     
   GDM::search:  On step            1 .  The current bracket is:
       left   : x =  0.0000E+00, e =      -422.4734132432, g = -0.2635E-04
       current: x =  0.2032E-03, e =      -422.4734132414, g =  0.4465E-04
       right  : x =  0.1000E+04, e =      1000.0000000000, g =  0.1000E+04
       next   : x =  0.7542E-04
[...]
   ------- Leaving GDM -- hopefully with a step in the right direction! --------
 
   25    -422.5565207871      9.15E-08  Gap = 17.24 eV  Normal BFGS step
 
   ------------------- Entering Geometric Direct Minimization ------------------
   GDM::trust : actual energy change is       -7.958078640513122E-013
   GDM::trust : predicted energy change was   -1.106483059281627E-013
   GDM::trust : updated trust radius is        0.330000000000000     
   GDM:         diagonal hessian shift is      0.000000000000000E+000
   GDM::PreWSS: input subspace size is                 19
   GDM::PreWSS: working subspace size set to           18
   GDM::PrEWSS: # of linearly dependent vectors =           13
   GDM::PrEWSS: Max dev from orthonormality =   5.891304111216300E-011
   GDM::BFGS:   lowest Hinv e-value    0.267545052875599     
   GDM::BFGS:   highest Hinv e-value    11.0969957175641     
   GDM::      : max scaling in EWCs is          2.63134278191274     
   GDM::      : max rotation in step is        2.503400886755191E-007
   GDM::        grad.step =  -7.027203326925077E-014
   ------- Leaving GDM -- hopefully with a step in the right direction! --------
 
   26    -422.5565207871      2.04E-07  Gap = 17.24 eV  Normal BFGS step
 
   ------------------- Entering Geometric Direct Minimization ------------------
   GDM::trust : actual energy change is        2.842170943040401E-013
   GDM::trust : predicted energy change was   -1.054080499038762E-013
   GDM::trust : updated trust radius is        0.108900000000000     
   GDM::WARNING energy changes are now smaller than effective accuracy.
   GDM::        calculation will continue, but THRESH should be increased
   GDM::        or SCF_CONVERGENCE decreased.
   GDM::        effective_thresh =   3.446380958394002E-010
   GDM:         diagonal hessian shift is      0.000000000000000E+000
   GDM::PreWSS: input subspace size is                 19
   GDM::PreWSS: working subspace size set to           18
   GDM::PrEWSS: # of linearly dependent vectors =           12
   GDM::PrEWSS: Max dev from orthonormality =   1.114241462984999E-009
   GDM::BFGS:   lowest Hinv e-value    0.254053158976803     
   GDM::BFGS:   highest Hinv e-value    11.5351583263608     
   GDM::      : max scaling in EWCs is          2.63134316059551     
   GDM::      : max rotation in step is        1.089490940719265E-007
   GDM::        grad.step =  -6.113718175588298E-015
   ------- Leaving GDM -- hopefully with a step in the right direction! --------
 
   27    -422.5565207871      2.81E-08  Gap = 17.24 eV  Normal BFGS step
 
   ------------------- Entering Geometric Direct Minimization ------------------
   GDM::trust : actual energy change is        1.136868377216160E-013
   GDM::trust : predicted energy change was   -9.170577263382447E-015
   GDM::trust : updated trust radius is        0.108900000000000     
   GDM::WARNING energy changes are now smaller than effective accuracy.
   GDM::        calculation will continue, but THRESH should be increased
   GDM::        or SCF_CONVERGENCE decreased.
   GDM::        effective_thresh =   1.114241462984999E-009
   GDM:         diagonal hessian shift is      0.000000000000000E+000
   GDM::PreWSS: input subspace size is                 19
   GDM::PreWSS: working subspace size set to           18
   GDM::PrEWSS: # of linearly dependent vectors =           12
   GDM::PrEWSS: Max dev from orthonormality =   5.381954257255295E-011
   GDM::BFGS:   lowest Hinv e-value    0.212268193855056     
   GDM::BFGS:   highest Hinv e-value    12.3203491081294     
   GDM::      : max scaling in EWCs is          2.63134361379467     
   GDM::      : max rotation in step is        1.833843077589929E-008
   GDM::        grad.step =  -1.012578167293669E-014
   ------- Leaving GDM -- hopefully with a step in the right direction! --------
 
   28    -422.5565207871      4.71E-08  Gap = 17.24 eV  Normal BFGS step
 
   ------------------- Entering Geometric Direct Minimization ------------------
   GDM::trust : actual energy change is       -5.684341886080801E-014
   GDM::trust : predicted energy change was   -1.518867250940504E-014
   GDM::trust : updated trust radius is        0.330000000000000     
   GDM:         diagonal hessian shift is      0.000000000000000E+000
   GDM::PreWSS: input subspace size is                 19
   GDM::PreWSS: working subspace size set to           18
   GDM::PrEWSS: # of linearly dependent vectors =           12
   GDM::PrEWSS: Max dev from orthonormality =   5.035587918866824E-011
   GDM::BFGS:   lowest Hinv e-value    0.200449829295225     
   GDM::BFGS:   highest Hinv e-value    12.3010183827923     
   GDM::      : max scaling in EWCs is          2.63134318245804     
   GDM::      : max rotation in step is       -3.830930575488232E-008
   GDM::        grad.step =  -1.269865667124751E-015
   ------- Leaving GDM -- hopefully with a step in the right direction! --------
 
   29    -422.5565207871      1.04E-08  Gap = 17.24 eV  Normal BFGS step
 
   ------------------- Entering Geometric Direct Minimization ------------------
   GDM::trust : actual energy change is       -5.115907697472721E-013
   GDM::trust : predicted energy change was   -1.904798500687126E-015
   GDM::trust : updated trust radius is        0.330000000000000     
   GDM:         diagonal hessian shift is      0.000000000000000E+000
   GDM::PreWSS: input subspace size is                 19
   GDM::PreWSS: working subspace size set to           18
   GDM::PrEWSS: # of linearly dependent vectors =           11
   GDM::PrEWSS: Max dev from orthonormality =   1.000019567154453E-009
   GDM::BFGS:   lowest Hinv e-value    0.180172857408288     
   GDM::BFGS:   highest Hinv e-value    12.2832312094449     
   GDM::      : max scaling in EWCs is          2.63134324516557     
   GDM::      : max rotation in step is        1.077814030959265E-008
   GDM::        grad.step =  -1.933335806163349E-015
   ------- Leaving GDM -- hopefully with a step in the right direction! --------
 
   30    -422.5565207871      2.49E-08  Gap = 17.24 eV  Normal BFGS step
 
   ------------------- Entering Geometric Direct Minimization ------------------
   GDM::trust : actual energy change is        2.842170943040401E-013
   GDM::trust : predicted energy change was   -2.900003709245023E-015
   GDM::trust : updated trust radius is        0.108900000000000     
   GDM::WARNING energy changes are now smaller than effective accuracy.
   GDM::        calculation will continue, but THRESH should be increased
   GDM::        or SCF_CONVERGENCE decreased.
   GDM::        effective_thresh =   1.114241462984999E-009
   GDM:         diagonal hessian shift is      0.000000000000000E+000
   GDM::PreWSS: input subspace size is                 19
   GDM::PreWSS: working subspace size set to           18
   GDM::PrEWSS: # of linearly dependent vectors =           11
   GDM::PrEWSS: Max dev from orthonormality =   1.304331989637753E-010
   GDM::BFGS:   lowest Hinv e-value    0.189265867398987     
   GDM::BFGS:   highest Hinv e-value    12.3024355302713     
   GDM::      : max scaling in EWCs is          2.63134321968675     
   GDM::      : max rotation in step is        8.896194836793478E-009
   GDM::        grad.step =  -8.191857407619235E-017
   ------- Leaving GDM -- hopefully with a step in the right direction! --------
 
   31    -422.5565207871      2.17E-09 Convergence criterion met
 ---------------------------------------
 One-Electron    Energy = -1042.4352698967
 Total Coulomb   Energy =   443.2665454843
 Alpha Exchange  Energy =    -4.9306263535
 Beta  Exchange  Energy =    -4.2943287336
 DFT   Exchange  Energy =   -36.9468060935
 DFT Correlation Energy =    -2.3217548709
 Nuclear Repu.   Energy =   225.1057196768
 Nuclear Attr.   Energy = -1439.4756003090
 Kinetic         Energy =   397.0403304122
 <S^2> = 6.0377
 SCF time:  CPU 147.39 s  wall 16.83 s
 SCF   energy in the final basis set = -422.5565207871
 Total energy in the final basis set = -422.5565207871
 
 --------------------------------------------------------------
 
                    Orbital Energies (a.u.)
 --------------------------------------------------------------
 
 Alpha MOs
 -- Occupied --
-19.422 -19.414 -19.209 -19.209 -19.163  -2.065  -1.411  -1.290
 -1.273  -1.270  -0.953  -0.948  -0.938  -0.884  -0.671  -0.664
 -0.659  -0.421  -0.420  -0.418  -0.416  -0.379  -0.374  -0.362
 -0.352  -0.346  -0.337  -0.330
 -- Virtual --
 -0.073  -0.054  -0.050  -0.011  -0.001   0.016   0.018   0.028
  0.036   0.044   0.102   0.106   0.125   0.136   0.145   0.159
  0.164   0.173   0.181   0.191   0.197   0.199   0.222   0.231
  0.235   0.245   0.251   0.267   0.278   0.298   0.307   0.317
  0.345   0.366   0.406   0.557   0.676   0.836   0.950   0.983
  0.989   1.039   1.061   1.081   1.110   1.123   1.126   1.172
  1.176   1.205   1.205   1.243   1.276   1.361   1.395   1.408
  1.448   1.460   1.625   1.672   1.676   1.695   1.721   1.744
  1.751   1.762   1.767   1.774   1.781   1.797   1.798   1.827
  1.832   1.838   1.858   1.871   1.905   1.924   2.048   2.392
  2.453   2.454   2.879  12.928
 
 Beta MOs
 -- Occupied --
-19.390 -19.387 -19.185 -19.185 -19.154  -2.069  -1.354  -1.292
 -1.276  -1.274  -0.882  -0.868  -0.863  -0.858  -0.625  -0.566
 -0.563  -0.358  -0.358  -0.342  -0.336  -0.333  -0.316  -0.301
 -- Virtual --
 -0.228  -0.224  -0.196  -0.189  -0.066  -0.047  -0.046  -0.006
  0.015   0.021   0.022   0.040   0.041   0.059   0.111   0.116
  0.129   0.143   0.151   0.172   0.177   0.181   0.193   0.200
  0.205   0.209   0.228   0.234   0.247   0.247   0.257   0.270
  0.282   0.302   0.310   0.322   0.347   0.369   0.410   0.562
  0.682   0.843   0.965   1.035   1.038   1.085   1.107   1.133
  1.138   1.158   1.176   1.198   1.199   1.214   1.226   1.262
  1.293   1.392   1.428   1.445   1.501   1.505   1.658   1.690
  1.709   1.729   1.774   1.785   1.793   1.796   1.809   1.811
  1.834   1.849   1.857   1.857   1.865   1.874   1.891   1.900
  1.935   1.957   2.062   2.429   2.494   2.496   2.904  12.928
 --------------------------------------------------------------
 
          Ground-State Mulliken Net Atomic Charges

     Atom                 Charge (a.u.)    Spin (a.u.)
  --------------------------------------------------------
      1 Zr                    1.457157      -0.220194
      2 O                     0.053822       0.887905
      3 O                    -0.506435       0.946731
      4 O                    -0.515616       0.367291
      5 O                    -0.506519       0.946889
      6 O                     0.017590       1.071377
  --------------------------------------------------------
  Sum of atomic charges =     0.000000
  Sum of spin   charges =     4.000000

 -----------------------------------------------------------------
                    Cartesian Multipole Moments
 -----------------------------------------------------------------
    Charge (ESU x 10^10)
                 0.0000
    Dipole Moment (Debye)
         X      -5.8714      Y      -0.2889      Z       0.1140
       Tot       5.8796
    Quadrupole Moments (Debye-Ang)
        XX     -45.1288     XY      -0.4780     YY     -56.4851
        XZ       1.0481     YZ      -0.7263     ZZ     -55.9200
    Octopole Moments (Debye-Ang^2)
       XXX     -23.9709    XXY      -0.2492    XYY     -12.8301
       YYY      14.8070    XXZ      -1.2362    XYZ       1.8030
       YYZ       0.8711    XZZ     -13.0554    YZZ     -12.4426
       ZZZ     -13.8597
    Hexadecapole Moments (Debye-Ang^3)
      XXXX    -539.1945   XXXY       6.1932   XXYY    -146.5011
      XYYY      22.3817   YYYY    -282.4109   XXXZ     -15.0197
      XXYZ       0.9739   XYYZ      -4.6414   YYYZ      -7.5411
      XXZZ    -145.6951   XYZZ      -7.4070   YYZZ     -86.7050
      XZZZ     -28.1813   YZZZ     -17.0902   ZZZZ    -272.5993
 -----------------------------------------------------------------
 Calculating analytic gradient of the SCF energy
 Gradient of SCF Energy
            1           2           3           4           5           6
    1   0.0000074  -0.0001968  -0.0000087  -0.0000204  -0.0000029   0.0002214
    2   0.0000622  -0.0000892   0.0000068   0.0000006  -0.0000446   0.0000642
    3  -0.0000919   0.0000868   0.0000696  -0.0000024   0.0000077  -0.0000699
 Max gradient component =       2.214E-04
 RMS gradient           =       8.566E-05
 Gradient time:  CPU 13.93 s  wall 2.01 s
 Geometry Optimization Parameters
   NAtoms,    NIC,     NZ,  NCons,   NDum,   NFix, NCnnct, MaxDiis
        6      36       0       0       0       0       0       0

 Cartesian Hessian Update
 Hessian Updated using BFGS Update


** GEOMETRY OPTIMIZATION IN DELOCALIZED INTERNAL COORDINATES **
   Searching for a Minimum

   Optimization Cycle:  23

                       Coordinates (Angstroms)
     ATOM                X               Y               Z
      1  Zr        0.4539792592   -0.0148049656    0.0767876078
      2  O        -1.9410636143    0.2717755337   -0.4441870220
      3  O         0.8615198338    0.7921299921    1.8573549664
      4  O         1.2160048557    0.9532068044   -1.2298987983
      5  O         0.9559726838   -1.9386145610   -0.1102469161
      6  O        -3.0805030181    0.0009171965   -0.1271198378
   Point Group: c1    Number of degrees of freedom:    12


   Energy is   -422.556520787

 Hessian Updated using BFGS Update

 12 Hessian modes will be used to form the next step
  Hessian Eigenvalues:
     0.002904    0.007970    0.010171    0.016573    0.036956    0.089625
     0.187075    0.241089    0.256783    0.298909    0.475338    0.559172

 Minimum Search - Taking Simple RFO Step
 Searching for Lamda that Minimizes Along All modes
 Value Taken    Lamda =   0.00000000
 Step Taken.  Stepsize is  0.005005

                             Maximum     Tolerance    Cnvgd?
         Gradient           0.000219      0.000300     YES
         Displacement       0.004156      0.001200      NO
         Energy change     -0.000001      0.000001     YES


                       Distance Matrix (Angstroms)
             Zr(  1)   O (  2)   O (  3)   O (  4)   O (  5)
   O (  2)  2.467747
   O (  3)  1.996911  3.663651
   O (  4)  1.795873  3.323969  3.111710
   O (  5)  1.997003  3.659257  3.367097  3.111891
   O (  6)  3.540394  1.213350  4.483715  4.536844  4.478304
 
 Final energy is   -422.556520787094     


 ******************************
 **  OPTIMIZATION CONVERGED  **
 ******************************

                       Coordinates (Angstroms)
     ATOM                X               Y               Z
      1  Zr        0.4539792592   -0.0148049656    0.0767876078
      2  O        -1.9410636143    0.2717755337   -0.4441870220
      3  O         0.8615198338    0.7921299921    1.8573549664
      4  O         1.2160048557    0.9532068044   -1.2298987983
      5  O         0.9559726838   -1.9386145610   -0.1102469161
      6  O        -3.0805030181    0.0009171965   -0.1271198378

Z-matrix Print:
$molecule
0 5
Zr
O  1 1.795873
O  1 1.996911 2 110.143092
O  1 1.997003 2 110.148564 3 127.792103 0
O  1 2.467747 2 101.280674 3 -116.217818 0
O  5 1.213350 1 146.132383 2 -179.943132 0
$end

 
 --------------------------------------------------------------
 
                    Orbital Energies (a.u.)
 --------------------------------------------------------------
 
 Alpha MOs
 -- Occupied --
-19.422 -19.414 -19.209 -19.209 -19.163  -2.065  -1.411  -1.290
 -1.273  -1.270  -0.953  -0.948  -0.938  -0.884  -0.671  -0.664
 -0.659  -0.421  -0.420  -0.418  -0.416  -0.379  -0.374  -0.362
 -0.352  -0.346  -0.337  -0.330
 -- Virtual --
 -0.073  -0.054  -0.050  -0.011  -0.001   0.016   0.018   0.028
  0.036   0.044   0.102   0.106   0.125   0.136   0.145   0.159
  0.164   0.173   0.181   0.191   0.197   0.199   0.222   0.231
  0.235   0.245   0.251   0.267   0.278   0.298   0.307   0.317
  0.345   0.366   0.406   0.557   0.676   0.836   0.950   0.983
  0.989   1.039   1.061   1.081   1.110   1.123   1.126   1.172
  1.176   1.205   1.205   1.243   1.276   1.361   1.395   1.408
  1.448   1.460   1.625   1.672   1.676   1.695   1.721   1.744
  1.751   1.762   1.767   1.774   1.781   1.797   1.798   1.827
  1.832   1.838   1.858   1.871   1.905   1.924   2.048   2.392
  2.453   2.454   2.879  12.928
 
 Beta MOs
 -- Occupied --
-19.390 -19.387 -19.185 -19.185 -19.154  -2.069  -1.354  -1.292
 -1.276  -1.274  -0.882  -0.868  -0.863  -0.858  -0.625  -0.566
 -0.563  -0.358  -0.358  -0.342  -0.336  -0.333  -0.316  -0.301
 -- Virtual --
 -0.228  -0.224  -0.196  -0.189  -0.066  -0.047  -0.046  -0.006
  0.015   0.021   0.022   0.040   0.041   0.059   0.111   0.116
  0.129   0.143   0.151   0.172   0.177   0.181   0.193   0.200
  0.205   0.209   0.228   0.234   0.247   0.247   0.257   0.270
  0.282   0.302   0.310   0.322   0.347   0.369   0.410   0.562
  0.682   0.843   0.965   1.035   1.038   1.085   1.107   1.133
  1.138   1.158   1.176   1.198   1.199   1.214   1.226   1.262
  1.293   1.392   1.428   1.445   1.501   1.505   1.658   1.690
  1.709   1.729   1.774   1.785   1.793   1.796   1.809   1.811
  1.834   1.849   1.857   1.857   1.865   1.874   1.891   1.900
  1.935   1.957   2.062   2.429   2.494   2.496   2.904  12.928
 --------------------------------------------------------------
 
          Ground-State Mulliken Net Atomic Charges

     Atom                 Charge (a.u.)    Spin (a.u.)
  --------------------------------------------------------
      1 Zr                    1.457157      -0.220194
      2 O                     0.053822       0.887905
      3 O                    -0.506435       0.946731
      4 O                    -0.515616       0.367291
      5 O                    -0.506519       0.946889
      6 O                     0.017590       1.071377
  --------------------------------------------------------
  Sum of atomic charges =     0.000000
  Sum of spin   charges =     4.000000

 -----------------------------------------------------------------
                    Cartesian Multipole Moments
 -----------------------------------------------------------------
    Charge (ESU x 10^10)
                 0.0000
    Dipole Moment (Debye)
         X      -5.8714      Y      -0.2889      Z       0.1140
       Tot       5.8796
    Quadrupole Moments (Debye-Ang)
        XX     -45.1288     XY      -0.4780     YY     -56.4851
        XZ       1.0481     YZ      -0.7263     ZZ     -55.9200
    Octopole Moments (Debye-Ang^2)
       XXX     -23.9709    XXY      -0.2492    XYY     -12.8301
       YYY      14.8070    XXZ      -1.2362    XYZ       1.8030
       YYZ       0.8711    XZZ     -13.0554    YZZ     -12.4426
       ZZZ     -13.8597
    Hexadecapole Moments (Debye-Ang^3)
      XXXX    -539.1945   XXXY       6.1932   XXYY    -146.5011
      XYYY      22.3817   YYYY    -282.4109   XXXZ     -15.0197
      XXYZ       0.9739   XYYZ      -4.6414   YYYZ      -7.5411
      XXZZ    -145.6951   XYZZ      -7.4070   YYZZ     -86.7050
      XZZZ     -28.1813   YZZZ     -17.0902   ZZZZ    -272.5993
 -----------------------------------------------------------------
Archival summary:
1\1\hpc3920\OPT\ProcedureUnspecified\BasisUnspecified\r15(\liqiuy\FriJan1720:03:592020FriJan1720:03:592020\0\\#,OPT,ProcedureUnspecified,BasisUnspecified,\\28,5\Zr\O,1,1.79587\O,1,1.99691,2,110.143\O,1,1.997,2,110.149,3,127.792,0\O,1,2.46775,2,101.281,3,-116.218,0\O,5,1.21335,1,146.132,2,-179.943,0\\\@

 Total job time:  560.79s(wall), 4148.22s(cpu) 
 Fri Jan 17 20:03:59 2020

        *************************************************************
        *                                                           *
        *  Thank you very much for using Q-Chem.  Have a nice day.  *
        *                                                           *
        *************************************************************


0 sent ACK to 0 
now end server 0 ... 
cleanup process ... done
