
Running Job 1 of 2 ZrOx.in
qchem ZrOx.in_12987.0 /tmp/5732833.priya/ZrOx.save/ 1
/usr/usc/qchem/4.4/bin/mpi/mpirun_qchem -machinefile /usr/usc/qchem/4.4/bin/mpi/machines -np 1 /usr/usc/qchem/4.4/exe/qcprog.exe ZrOx.in_12987.0 /tmp/5732833.priya/ZrOx.save/

Process 0 of 1 is on hpc3465.hpcc.usc.edu - thread support 0
initial socket setup ...start
initial socket setup ...done 
now start server 0 ... 
Check license passed

                  Welcome to Q-Chem
     A Quantum Leap Into The Future Of Chemistry


 Q-Chem 4.4, Q-Chem, Inc., Pleasanton, CA (2016)

 Y. Shao,  Z. Gan,  E. Epifanovsky,  A. T. B. Gilbert,  M. Wormit,  
 J. Kussmann,  A. W. Lange,  A. Behn,  J. Deng,  X. Feng,  D. Ghosh,  
 M. Goldey,  P. R. Horn,  L. D. Jacobson,  I. Kaliman,  F.Rob,  
 R. Z. Khaliullin,  T. Kus,  A. Landau,  J. Liu,  E. I. Proynov,  Y. M. Rhee,  
 R. M. Richard,  M. A. Rohrdanz,  R. P. Steele,  E. J. Sundstrom,  
 H. L. Woodcock III,  P. M. Zimmerman,  D. Zuev,  B. Albrecht,  E. Alguire,  
 B. Austin,  S. A. Baeppler,  G. J. O. Beran,  Y. A. Bernard,  E. Berquist,  
 K. Brandhorst,  K. B. Bravaya,  S. T. Brown,  D. Casanova,  C.-M. Chang,  
 Y. Chen,  S. H. Chien,  K. D. Closser,  M. P. Coons,  D. L. Crittenden,  
 S. Dasgupta,  M. Diedenhofen,  R. A. DiStasio Jr.,  H. Do,  A. D. Dutoi,  
 R. G. Edgar,  P.-T. Fang,  S. Fatehi,  Q. Feng,  L. Fusti-Molnar,  
 A. Ghysels,  A. Golubeva-Zadorozhnaya,  J. Gomes,  A. Gunina,  
 M. W. D. Hanson-Heine,  P. H. P. Harbach,  A. W. Hauser,  E. G. Hohenstein,  
 Z. C. Holden,  K. Hui,  T.-C. Jagau,  H. Ji,  B. Kaduk,  K. Khistyaev,  
 Jaehoon Kim,  Jihan Kim,  R. A. King,  P. Klunzinger,  D. Kosenkov,  
 T. Kowalczyk,  C. M. Krauter,  A. Kunitsa,  K. U. Lao,  A. Laurent,  
 K. V. Lawler,  D. Lefrancois,  S. Lehtola,  S. V. Levchenko,  C. Y. Lin,  
 Y.-S. Lin,  F. Liu,  E. Livshits,  R. C. Lochan,  A. Luenser,  P. Manohar,  
 S. F. Manzer,  S.-P. Mao,  Y. Mao,  N. Mardirossian,  A. V. Marenich,  
 L. A. Martinez-Martinez,  S. A. Maurer,  N. J. Mayhall,  J.-M. Mewes,  
 A. F. Morrison,  K. Nanda,  C. M. Oana,  R. Olivares-Amaya,  D. P. O'Neill,  
 J. A. Parkhill,  T. M. Perrine,  R. Peverati,  P. A. Pieniazek,  F. Plasser,  
 A. Prociuk,  D. R. Rehn,  E. Rosta,  N. J. Russ,  N. Sergueev,  
 S. M. Sharada,  S. Sharma,  D. W. Small,  A. Sodt,  T. Stauch,  T. Stein,  
 D. Stuck,  Y.-C. Su,  A. J. W. Thom,  T. Tsuchimochi,  L. Vogt,  O. Vydrov,  
 T. Wang,  M. A. Watson,  J. Wenzel,  A. White,  C. F. Williams,  
 V. Vanovschi,  S. Yeganeh,  S. R. Yost,  Z.-Q. You,  I. Y. Zhang,  X. Zhang,  
 Y. Zhao,  B. R. Brooks,  G. K. L. Chan,  D. M. Chipman,  C. J. Cramer,  
 W. A. Goddard III,  M. S. Gordon,  W. J. Hehre,  A. Klamt,  
 H. F. Schaefer III,  M. W. Schmidt,  C. D. Sherrill,  D. G. Truhlar,  
 A. Warshel,  X. Xu,  A. Aspuru-Guzik,  R. Baer,  A. T. Bell,  N. A. Besley,  
 J.-D. Chai,  A. Dreuw,  B. D. Dunietz,  T. R. Furlani,  S. R. Gwaltney,  
 C.-P. Hsu,  Y. Jung,  J. Kong,  D. S. Lambrecht,  W. Liang,  C. Ochsenfeld,  
 V. A. Rassolov,  L. V. Slipchenko,  J. E. Subotnik,  T. Van Voorhis,  
 J. M. Herbert,  A. I. Krylov,  P. M. W. Gill,  M. Head-Gordon

 Contributors to earlier versions of Q-Chem not listed above: 
 R. D. Adamson,  J. Baker,  E. F. C. Byrd,  A. K. Chakraborty,  C.-L. Cheng,  
 H. Dachsel,  R. J. Doerksen,  G. Hawkins,  A. Heyden,  S. Hirata,  
 G. Kedziora,  F. J. Keil,  C. Kelley,  P. P. Korambath,  W. Kurlancheek,  
 A. M. Lee,  M. S. Lee,  D. Liotard,  I. Lotan,  P. E. Maslen,  N. Nair,  
 D. Neuhauser,  R. Olson,  B. Peters,  J. Ritchie,  N. E. Schultz,  
 N. Shenvi,  A. C. Simmonett,  K. S. Thanthiriwatte,  Q. Wu,  W. Zhang

 Please cite Q-Chem as follows:
 Y. Shao et al., Mol. Phys. 113, 184-215 (2015)
 DOI: 10.1080/00268976.2014.952696

 Q-Chem 4.4.1 for Intel X86 Linux

 Parts of Q-Chem use Armadillo 5.200.1 (Boston Tea Smuggler).
 http://arma.sourceforge.net/

 Q-Chem begins on Fri Jan 17 19:58:12 2020  

Host: 
0

     Scratch files written to /tmp/5732833.priya/ZrOx.save//
 Jul2716 11668_ 21447  21445 5558   
 Parallel job on  1  processors
Processing $rem in /usr/usc/qchem/4.4/config/preferences.
 MEM_TOTAL  2000 

Checking the input file for inconsistencies... 	...done.

--------------------------------------------------------------
User input:
--------------------------------------------------------------
$comment
--------------------------------------------------------
A SINGLE POINT DFT CALCULATION WITH BASIS SET PROJECTION
--------------------------------------------------------
$end

$molecule
0 5
Zr 0.00000 0.00000 0.60834
O 1.60632 0.00000 -0.59636
O 0.00000 -1.60632 -0.59636
O -1.60632 0.00000 -0.59636
O 0.00000 0.00000 2.32842
O 0.00000 1.60632 -0.59636
S 0.00000 0.00000 -1.59132
$end

$rem
JOBTYPE   SP
METHOD   B3LYP
BASIS   GEN
ECP   GEN
MAX_SCF_CYCLES   200
SCF_CONVERGENCE 8
SCF_PRINT 1
PDB_PRINT 2
THRESH 14
VARTHRESH 14
INCDFT FALSE
SYMMETRY False
Sym_ignore True
SCF_ALGORITHM GDM
XC_GRID 000128000302
DFT_D           EMPIRICAL_GRIMME3
DFT_D3_S6       1000
DFT_D3_RS6     1261
DFT_D3_S8      1703
DFT_D3_3BODY    FALSE
$end

$basis
O
6-31+G**
****
S
6-31+G**
****
Zr
LanL2DZ
****
$end

$ecp
Zr
LanL2DZ
****
$end

--------------------------------------------------------------
 ----------------------------------------------------------------
             Standard Nuclear Orientation (Angstroms)
    I     Atom           X                Y                Z
 ----------------------------------------------------------------
    1      Zr      0.0000000000     0.0000000000     0.6083400000
    2      O       1.6063200000     0.0000000000    -0.5963600000
    3      O       0.0000000000    -1.6063200000    -0.5963600000
    4      O      -1.6063200000     0.0000000000    -0.5963600000
    5      O       0.0000000000     0.0000000000     2.3284200000
    6      O       0.0000000000     1.6063200000    -0.5963600000
    7      S       0.0000000000     0.0000000000    -1.5913200000
 ----------------------------------------------------------------
 Nuclear Repulsion Energy =   458.9132409124 hartrees
 There are       36 alpha and       32 beta electrons

 Q-Chem warning in module /home/scratch/svnadmin/11668_zgan/qchem/forms1/BasisType.C, line 1419:

 Setting pure/cartesian flag to 2111 for general basis


 Requested basis set is non-standard
 There are 39 shells and 134 basis functions

 Total QAlloc Memory Limit   2000 MB
 Mega-Array Size        61 MB
 MEM_STATIC part        62 MB

                       Distance Matrix (Angstroms)
             Zr(  1)   O (  2)   O (  3)   O (  4)   O (  5)   O (  6)
   O (  2)  2.007876
   O (  3)  2.007876  2.271680
   O (  4)  2.007876  3.212640  2.271680
   O (  5)  1.720080  3.336855  3.336855  3.336855
   O (  6)  2.007876  2.271680  3.212640  2.271680  3.336855
   S (  7)  2.199660  1.889500  1.889500  1.889500  3.919740  1.889500

 
 A cutoff of  1.0D-14 yielded    752 shell pairs
 There are      9167 function pairs (     10313 Cartesian)
 
 -------------------------------------------------------
 OpenMP Integral Computing Module                       
 Release: version 1.0, May 2013, Q-Chem Inc. Pittsburgh 
 -------------------------------------------------------
 Integral Job Info:
 Integral job number is                      11
 Integral operator is                         1
 short-range coefficients                     0
 long-range coefficients              100000000
 Omega coefficients                           0
 if combine SR and LR in K                    0
 Integral screening is                        0
 Integral computing path is                   2
 max size of driver memory is            800000
 size of driver memory is                593474
 size of scratch memory is             15166112
 max col of scratch BK array               1296
 max len of scratch array in speh3          155
 max len of scratch index in speh4           18
 max int batch size is                      520
 min int batch size is                       52
 fixed nKL is                                52
 max L of basis functions is                  2
 order of int derivative is                   0
 number of shells is                         39
 number of basis is                         142
 number of cartesian basis is               142
 number of contracted shell pairs           752
 number of primitive shell pairs           3509
 maxK2 (contraction) of shell pair           36
 max number of K2 of shell pair               1
 max number of CS2 of shell pair             86
 max number of PS2 of shell pair            516
 mem total for path MDJ                   38680
 -------------------------------------------------------
 Requested basis set is non-standard
 Compound shells will be simplified
 There are 58 shells and 134 basis functions
 A cutoff of  1.0D-14 yielded   1670 shell pairs
 There are      9110 function pairs (     10256 Cartesian)
 Smallest overlap matrix eigenvalue = 4.51E-04

 Scale SEOQF with 1.000000e-01/1.000000e-01/1.000000e-01

 Standard Electronic Orientation quadrupole field applied
 Nucleus-field energy     =    -0.0000000063 hartrees
 Guess MOs from core Hamiltonian diagonalization
 An unrestricted hybrid HF-DFT SCF calculation will be
 performed using Geometric Direct Minimization
 Exchange:     0.2000 Hartree-Fock + 0.0800 Slater + 0.7200 B88
 Correlation:  0.1900 VWN1RPA + 0.8100 LYP
 Using Euler-Maclaurin-Lebedev (128,302) quadrature formula
 Dispersion:   Grimme D3
 SCF converges when RMS gradient is below 1.0E-08
 Maximum number of minimization steps = 200
 using 12 threads for integral computing 
 -------------------------------------------------------
 OpenMP BLAS3 based DFT computing Module                
 Release: version 1.0, May 2013, Q-Chem Inc. Pittsburgh 
 -------------------------------------------------------
 
   ------------------- Entering Geometric Direct Minimization ------------------
   GDM:         diagonal hessian shift is      0.000000000000000E+000
   GDM::PreWSS: input subspace size is                  1
   GDM::PreWSS: working subspace size set to            1
   GDM::PrEWSS: # of linearly dependent vectors =            0
   GDM::PrEWSS: Max dev from orthonormality =   4.440892098500626E-016
   GDM::BFGS:   lowest Hinv e-value     1.00000000000000     
   GDM::BFGS:   highest Hinv e-value    1.00000000000000     
   GDM::      : max scaling in EWCs is          1.41421356237309     
   GDM::      : max rotation in step is       -7.703303929689452E-002
   GDM::        grad.step =   -4.27308458469347     
   ------- Leaving GDM -- hopefully with a step in the right direction! --------
 
 ---------------------------------------
  Cycle       Energy        RMS Gradient
 ---------------------------------------
    1    -750.4327757472      2.14E+00  Gap = 0.00 eV  Descent step
 
   ------------------- Entering Geometric Direct Minimization ------------------
   GDM::trust : actual energy change is        -4.25201174321535     
   GDM::trust : predicted energy change was   -0.163350000000000     
   GDM::trust : updated trust radius is        0.330000000000000     
   GDM::search:  On step            1 .  The current bracket is:
       left   : x =  0.0000E+00, e =      -750.4327757472, g = -0.1138E+02
       current: x =  0.3756E+00, e =      -754.6847874905, g = -0.1122E+02
       right  : x =  0.1000E+04, e =      1000.0000000000, g =  0.1000E+04
       next   : x =  0.3756E+01
   GDM::      : max rotation in step is       -0.770330392968945     
   ------- Leaving GDM -- hopefully with a step in the right direction! --------
 
    2    -754.6847874905      9.32E-01  Gap = 13.57 eV  Line search: understep
 
   ------------------- Entering Geometric Direct Minimization ------------------
   GDM::trust : actual energy change is        -25.4679162835578     
   GDM::trust : predicted energy change was   -0.163350000000000     
   GDM::trust : updated trust radius is        0.330000000000000     
   GDM:         diagonal hessian shift is      0.000000000000000E+000
   GDM::PreWSS: input subspace size is                  2
   GDM::PreWSS: working subspace size set to            2
   GDM::PrEWSS: # of linearly dependent vectors =            0
   GDM::PrEWSS: Max dev from orthonormality =   2.355754480376504E-015
   GDM::BFGS:   lowest Hinv e-value    0.690926909440364     
   GDM::BFGS:   highest Hinv e-value    1.31961005967815     
   GDM::      : max scaling in EWCs is          2.82842712474619     
   GDM::      : max rotation in step is        0.233722078952071     
   GDM::        grad.step =   -2.72753147283497     
   ------- Leaving GDM -- hopefully with a step in the right direction! --------
 
    3    -775.9006920308      2.07E+00  Gap = 13.57 eV  Descent step
 
   ------------------- Entering Geometric Direct Minimization ------------------
   GDM::trust : actual energy change is        -2.66577660055566     
   GDM::trust : predicted energy change was   -0.165219387655376     
   GDM::trust : updated trust radius is        0.330000000000000     
   GDM:         diagonal hessian shift is      0.000000000000000E+000
   GDM::PreWSS: input subspace size is                  3
   GDM::PreWSS: working subspace size set to            3
   GDM::PrEWSS: # of linearly dependent vectors =            0
   GDM::PrEWSS: Max dev from orthonormality =   7.126244039312724E-015
   GDM::BFGS:   lowest Hinv e-value    0.366892415600114     
   GDM::BFGS:   highest Hinv e-value    3.98157200312058     
   GDM::      : max scaling in EWCs is          2.82842712474619     
   GDM::      : max rotation in step is        0.173007847752058     
   GDM::        grad.step =   -2.48141019603014     
   ------- Leaving GDM -- hopefully with a step in the right direction! --------
 
    4    -778.5664686314      1.39E+00  Gap = 13.57 eV  Descent step
 
   ------------------- Entering Geometric Direct Minimization ------------------
   GDM::trust : actual energy change is        -2.42425517005074     
   GDM::trust : predicted energy change was   -0.150165873481022     
   GDM::trust : updated trust radius is        0.330000000000000     
   GDM:         diagonal hessian shift is      0.000000000000000E+000
   GDM::PreWSS: input subspace size is                  4
   GDM::PreWSS: working subspace size set to            4
   GDM::PrEWSS: # of linearly dependent vectors =            0
   GDM::PrEWSS: Max dev from orthonormality =   9.707512571566213E-014
   GDM::BFGS:   lowest Hinv e-value    0.284819386670051     
   GDM::BFGS:   highest Hinv e-value    3.75231661268870     
   GDM::      : max scaling in EWCs is          2.82842712474619     
   GDM::      : max rotation in step is        0.184967684659307     
   GDM::        grad.step =   -2.23665121742839     
   ------- Leaving GDM -- hopefully with a step in the right direction! --------
 
    5    -780.9907238014      1.69E+00  Gap = 13.57 eV  Descent step
 
   ------------------- Entering Geometric Direct Minimization ------------------
   GDM::trust : actual energy change is        -2.20841797279741     
   GDM::trust : predicted energy change was   -0.142325646547127     
   GDM::trust : updated trust radius is        0.330000000000000     
   GDM:         diagonal hessian shift is      0.000000000000000E+000
   GDM::PreWSS: input subspace size is                  5
   GDM::PreWSS: working subspace size set to            5
   GDM::PrEWSS: # of linearly dependent vectors =            0
   GDM::PrEWSS: Max dev from orthonormality =   1.298409296746073E-012
   GDM::BFGS:   lowest Hinv e-value    0.189298230080901     
   GDM::BFGS:   highest Hinv e-value    5.03444471879526     
   GDM::      : max scaling in EWCs is          2.82842712474619     
   GDM::      : max rotation in step is       -0.180480005621897     
   GDM::        grad.step =   -2.15592945820930     
   ------- Leaving GDM -- hopefully with a step in the right direction! --------
 
    6    -783.1991417742      1.36E+00  Gap = 13.57 eV  Descent step
 
   ------------------- Entering Geometric Direct Minimization ------------------
   GDM::trust : actual energy change is        -2.12617581270672     
   GDM::trust : predicted energy change was   -0.130999018814232     
   GDM::trust : updated trust radius is        0.330000000000000     
   GDM:         diagonal hessian shift is      0.000000000000000E+000
   GDM::PreWSS: input subspace size is                  6
   GDM::PreWSS: working subspace size set to            6
   GDM::PrEWSS: # of linearly dependent vectors =            0
   GDM::PrEWSS: Max dev from orthonormality =   2.450178948620874E-012
   GDM::BFGS:   lowest Hinv e-value    0.140895895754397     
   GDM::BFGS:   highest Hinv e-value    5.91540599808348     
   GDM::      : max scaling in EWCs is          2.82842712474619     
   GDM::      : max rotation in step is        0.291293708019832     
   GDM::        grad.step =   -2.42264122974734     
   ------- Leaving GDM -- hopefully with a step in the right direction! --------
 
    7    -785.3253175869      2.29E+00  Gap = 13.57 eV  Descent step
 
   ------------------- Entering Geometric Direct Minimization ------------------
   GDM::trust : actual energy change is        -2.26475680278543     
   GDM::trust : predicted energy change was   -0.145919564905835     
   GDM::trust : updated trust radius is        0.330000000000000     
   GDM:         diagonal hessian shift is      0.000000000000000E+000
   GDM::PreWSS: input subspace size is                  7
   GDM::PreWSS: working subspace size set to            7
   GDM::PrEWSS: # of linearly dependent vectors =            0
   GDM::PrEWSS: Max dev from orthonormality =   2.515172098371821E-012
   GDM::BFGS:   lowest Hinv e-value    0.134072735022751     
   GDM::BFGS:   highest Hinv e-value    7.25388203286878     
   GDM::      : max scaling in EWCs is          2.82842712474619     
   GDM::      : max rotation in step is        0.334632166950118     
   GDM::        grad.step =   -2.13447533397496     
   ------- Leaving GDM -- hopefully with a step in the right direction! --------
 
    8    -787.5900743897      2.32E+00  Gap = 13.57 eV  Descent step
 
   ------------------- Entering Geometric Direct Minimization ------------------
   GDM::trust : actual energy change is        -2.02671204097680     
   GDM::trust : predicted energy change was   -0.162800000445590     
   GDM::trust : updated trust radius is        0.330000000000000     
   GDM:         diagonal hessian shift is      0.000000000000000E+000
   GDM::PreWSS: input subspace size is                  8
   GDM::PreWSS: working subspace size set to            8
   GDM::PrEWSS: # of linearly dependent vectors =            0
   GDM::PrEWSS: Max dev from orthonormality =   6.060658919171402E-012
   GDM::BFGS:   lowest Hinv e-value    0.143944425190827     
   GDM::BFGS:   highest Hinv e-value    8.45689190549671     
   GDM::      : max scaling in EWCs is          2.82842712474619     
   GDM::      : max rotation in step is       -0.120907747411247     
   GDM::        grad.step =   -1.66639422249178     
   ------- Leaving GDM -- hopefully with a step in the right direction! --------
 
    9    -789.6167864307      1.05E+00  Gap = 13.57 eV  Descent step
 
   ------------------- Entering Geometric Direct Minimization ------------------
   GDM::trust : actual energy change is        -1.61139860057506     
   GDM::trust : predicted energy change was   -0.160590106630752     
   GDM::trust : updated trust radius is        0.330000000000000     
   GDM:         diagonal hessian shift is      0.000000000000000E+000
   GDM::PreWSS: input subspace size is                  9
   GDM::PreWSS: working subspace size set to            9
   GDM::PrEWSS: # of linearly dependent vectors =            0
   GDM::PrEWSS: Max dev from orthonormality =   8.179778035466434E-012
   GDM::BFGS:   lowest Hinv e-value    0.131541179128459     
   GDM::BFGS:   highest Hinv e-value    9.51100364268566     
   GDM::      : max scaling in EWCs is          2.82842712474619     
   GDM::      : max rotation in step is       -0.139731833735145     
   GDM::        grad.step =   -1.58095305086170     
   ------- Leaving GDM -- hopefully with a step in the right direction! --------
 
   10    -791.2281850313      9.62E-01  Gap = 13.57 eV  Descent step
 
   ------------------- Entering Geometric Direct Minimization ------------------
   GDM::trust : actual energy change is        -1.52052050649434     
   GDM::trust : predicted energy change was   -0.145223313096918     
   GDM::trust : updated trust radius is        0.330000000000000     
   GDM:         diagonal hessian shift is      0.000000000000000E+000
   GDM::PreWSS: input subspace size is                 10
   GDM::PreWSS: working subspace size set to           10
   GDM::PrEWSS: # of linearly dependent vectors =            0
   GDM::PrEWSS: Max dev from orthonormality =   6.340013583572279E-012
   GDM::BFGS:   lowest Hinv e-value    0.120318705483384     
   GDM::BFGS:   highest Hinv e-value    10.6165847612733     
   GDM::      : max scaling in EWCs is          2.82842712474619     
   GDM::      : max rotation in step is       -0.236091322193898     
   GDM::        grad.step =   -1.56271995837546     
   ------- Leaving GDM -- hopefully with a step in the right direction! --------
 
   11    -792.7487055377      1.20E+00  Gap = 13.57 eV  Descent step
 
   ------------------- Entering Geometric Direct Minimization ------------------
   GDM::trust : actual energy change is        -1.50890095229306     
   GDM::trust : predicted energy change was   -0.145503674287803     
   GDM::trust : updated trust radius is        0.330000000000000     
   GDM:         diagonal hessian shift is      0.000000000000000E+000
   GDM::PreWSS: input subspace size is                 11
   GDM::PreWSS: working subspace size set to           11
   GDM::PrEWSS: # of linearly dependent vectors =            0
   GDM::PrEWSS: Max dev from orthonormality =   1.080609213222061E-011
   GDM::BFGS:   lowest Hinv e-value    0.110546937211344     
   GDM::BFGS:   highest Hinv e-value    11.1055604910143     
   GDM::      : max scaling in EWCs is          2.82842712474619     
   GDM::      : max rotation in step is       -0.216692085295640     
   GDM::        grad.step =   -1.58449134221257     
   ------- Leaving GDM -- hopefully with a step in the right direction! --------
 
   12    -794.2576064900      1.19E+00  Gap = 13.57 eV  Descent step
 
   ------------------- Entering Geometric Direct Minimization ------------------
   GDM::trust : actual energy change is        -1.55768373559431     
   GDM::trust : predicted energy change was   -0.151819632249919     
   GDM::trust : updated trust radius is        0.330000000000000     
   GDM:         diagonal hessian shift is      0.000000000000000E+000
   GDM::PreWSS: input subspace size is                 12
   GDM::PreWSS: working subspace size set to           12
   GDM::PrEWSS: # of linearly dependent vectors =            0
   GDM::PrEWSS: Max dev from orthonormality =   7.244576466503005E-012
   GDM::BFGS:   lowest Hinv e-value    0.123502618922285     
   GDM::BFGS:   highest Hinv e-value    11.5886589403138     
   GDM::      : max scaling in EWCs is          2.82842712474619     
   GDM::      : max rotation in step is        0.301801493533538     
   GDM::        grad.step =   -1.54227588253311     
   ------- Leaving GDM -- hopefully with a step in the right direction! --------
 
   13    -795.8152902256      1.51E+00  Gap = 13.57 eV  Descent step
 
   ------------------- Entering Geometric Direct Minimization ------------------
   GDM::trust : actual energy change is        -1.47185168323813     
   GDM::trust : predicted energy change was   -0.143630299983062     
   GDM::trust : updated trust radius is        0.330000000000000     
   GDM:         diagonal hessian shift is      0.000000000000000E+000
   GDM::PreWSS: input subspace size is                 13
   GDM::PreWSS: working subspace size set to           13
   GDM::PrEWSS: # of linearly dependent vectors =            0
   GDM::PrEWSS: Max dev from orthonormality =   5.041220912938016E-012
   GDM::BFGS:   lowest Hinv e-value    0.113279816120543     
   GDM::BFGS:   highest Hinv e-value    11.8716840341508     
   GDM::      : max scaling in EWCs is          2.82842712474619     
   GDM::      : max rotation in step is       -0.296426949849377     
   GDM::        grad.step =   -1.33621341198396     
   ------- Leaving GDM -- hopefully with a step in the right direction! --------
 
   14    -797.2871419089      1.35E+00  Gap = 13.57 eV  Descent step
 
   ------------------- Entering Geometric Direct Minimization ------------------
   GDM::trust : actual energy change is        -1.27674496231259     
   GDM::trust : predicted energy change was   -0.149934935936963     
   GDM::trust : updated trust radius is        0.330000000000000     
   GDM:         diagonal hessian shift is      0.000000000000000E+000
   GDM::PreWSS: input subspace size is                 14
   GDM::PreWSS: working subspace size set to           14
   GDM::PrEWSS: # of linearly dependent vectors =            0
   GDM::PrEWSS: Max dev from orthonormality =   1.308564367974441E-011
   GDM::BFGS:   lowest Hinv e-value    9.709699305026168E-002
   GDM::BFGS:   highest Hinv e-value    12.4777602723572     
   GDM::      : max scaling in EWCs is          2.82842712474619     
   GDM::      : max rotation in step is        0.533951800576345     
   GDM::        grad.step =   -1.49191638619882     
   ------- Leaving GDM -- hopefully with a step in the right direction! --------
 
   15    -798.5638868712      3.27E+00  Gap = 13.57 eV  Descent step
 
   ------------------- Entering Geometric Direct Minimization ------------------
   GDM::trust : actual energy change is        -1.32799524140773     
   GDM::trust : predicted energy change was   -0.196522713283044     
   GDM::trust : updated trust radius is        0.330000000000000     
   GDM:         diagonal hessian shift is      0.000000000000000E+000
   GDM::PreWSS: input subspace size is                 15
   GDM::PreWSS: working subspace size set to           15
   GDM::PrEWSS: # of linearly dependent vectors =            0
   GDM::PrEWSS: Max dev from orthonormality =   9.485020407984379E-012
   GDM::BFGS:   lowest Hinv e-value    0.130772019357071     
   GDM::BFGS:   highest Hinv e-value    12.3474295969398     
   GDM::      : max scaling in EWCs is          2.82842712474619     
   GDM::      : max rotation in step is       -0.247459817362523     
   GDM::        grad.step =   -1.10646099446400     
   ------- Leaving GDM -- hopefully with a step in the right direction! --------
 
   16    -799.8918821126      8.89E-01  Gap = 13.57 eV  Descent step
 
   ------------------- Entering Geometric Direct Minimization ------------------
   GDM::trust : actual energy change is        -1.08782521621390     
   GDM::trust : predicted energy change was   -0.152595800345135     
   GDM::trust : updated trust radius is        0.330000000000000     
   GDM:         diagonal hessian shift is      0.000000000000000E+000
   GDM::PreWSS: input subspace size is                 16
   GDM::PreWSS: working subspace size set to           16
   GDM::PrEWSS: # of linearly dependent vectors =            0
   GDM::PrEWSS: Max dev from orthonormality =   7.515224553777955E-012
   GDM::BFGS:   lowest Hinv e-value    0.121332909721221     
   GDM::BFGS:   highest Hinv e-value    12.5740985636376     
   GDM::      : max scaling in EWCs is          2.82842712474619     
   GDM::      : max rotation in step is       -0.206356331262789     
   GDM::        grad.step =   -1.17689824229407     
   ------- Leaving GDM -- hopefully with a step in the right direction! --------
 
   17    -800.9797073288      1.14E+00  Gap = 13.57 eV  Descent step
 
   ------------------- Entering Geometric Direct Minimization ------------------
   GDM::trust : actual energy change is        -1.12491459598527     
   GDM::trust : predicted energy change was   -0.137729518589764     
   GDM::trust : updated trust radius is        0.330000000000000     
   GDM:         diagonal hessian shift is      0.000000000000000E+000
   GDM::PreWSS: input subspace size is                 17
   GDM::PreWSS: working subspace size set to           17
   GDM::PrEWSS: # of linearly dependent vectors =            0
   GDM::PrEWSS: Max dev from orthonormality =   1.195722687530321E-011
   GDM::BFGS:   lowest Hinv e-value    9.022678112743673E-002
   GDM::BFGS:   highest Hinv e-value    12.5933875692468     
   GDM::      : max scaling in EWCs is          2.82842712474619     
   GDM::      : max rotation in step is        0.578738217839503     
   GDM::        grad.step =   -1.32996065420099     
   ------- Leaving GDM -- hopefully with a step in the right direction! --------
 
   18    -802.1046219248      2.50E+00  Gap = 13.57 eV  Descent step
 
   ------------------- Entering Geometric Direct Minimization ------------------
   GDM::trust : actual energy change is        -1.19562112117114     
   GDM::trust : predicted energy change was   -0.213763509902660     
   GDM::trust : updated trust radius is        0.330000000000000     
   GDM:         diagonal hessian shift is      0.000000000000000E+000
   GDM::PreWSS: input subspace size is                 18
   GDM::PreWSS: working subspace size set to           18
   GDM::PrEWSS: # of linearly dependent vectors =            0
   GDM::PrEWSS: Max dev from orthonormality =   6.480010972254036E-012
   GDM::BFGS:   lowest Hinv e-value    0.123136350826099     
   GDM::BFGS:   highest Hinv e-value    12.6796874746601     
   GDM::      : max scaling in EWCs is          2.82842712474619     
   GDM::      : max rotation in step is       -0.292438604131104     
   GDM::        grad.step =   -1.10180546472182     
   ------- Leaving GDM -- hopefully with a step in the right direction! --------
 
   19    -803.3002430460      1.07E+00  Gap = 13.57 eV  Descent step
 
   ------------------- Entering Geometric Direct Minimization ------------------
   GDM::trust : actual energy change is        -1.08315652337581     
   GDM::trust : predicted energy change was   -0.179786565449511     
   GDM::trust : updated trust radius is        0.330000000000000     
   GDM:         diagonal hessian shift is      0.000000000000000E+000
   GDM::PreWSS: input subspace size is                 19
   GDM::PreWSS: working subspace size set to           18
   GDM::PrEWSS: # of linearly dependent vectors =            0
   GDM::PrEWSS: Max dev from orthonormality =   1.726460641116034E-011
   GDM::BFGS:   lowest Hinv e-value    0.130135207879290     
   GDM::BFGS:   highest Hinv e-value    12.9085907078731     
   GDM::      : max scaling in EWCs is          2.82842712474619     
   GDM::      : max rotation in step is        0.533586872292824     
   GDM::        grad.step =   -1.11639033528609     
   ------- Leaving GDM -- hopefully with a step in the right direction! --------
 
   20    -804.3833995693      1.93E+00  Gap = 13.57 eV  Descent step
 
   ------------------- Entering Geometric Direct Minimization ------------------
   GDM::trust : actual energy change is       -0.995890660206555     
   GDM::trust : predicted energy change was   -0.167899934693871     
   GDM::trust : updated trust radius is        0.330000000000000     
   GDM:         diagonal hessian shift is      0.000000000000000E+000
   GDM::PreWSS: input subspace size is                 19
   GDM::PreWSS: working subspace size set to           18
   GDM::PrEWSS: # of linearly dependent vectors =            0
   GDM::PrEWSS: Max dev from orthonormality =   5.344814868468717E-012
   GDM::BFGS:   lowest Hinv e-value    0.140442598974489     
   GDM::BFGS:   highest Hinv e-value    11.7178974311836     
   GDM::      : max scaling in EWCs is          2.82842712474619     
   GDM::      : max rotation in step is        0.473935496667006     
   GDM::        grad.step =   -1.12568332178579     
   ------- Leaving GDM -- hopefully with a step in the right direction! --------
 
   21    -805.3792902295      1.73E+00  Gap = 13.57 eV  Descent step
 
   ------------------- Entering Geometric Direct Minimization ------------------
   GDM::trust : actual energy change is        -1.08682806891045     
   GDM::trust : predicted energy change was   -0.196131710792889     
   GDM::trust : updated trust radius is        0.330000000000000     
   GDM:         diagonal hessian shift is      0.000000000000000E+000
   GDM::PreWSS: input subspace size is                 19
   GDM::PreWSS: working subspace size set to           18
   GDM::PrEWSS: # of linearly dependent vectors =            0
   GDM::PrEWSS: Max dev from orthonormality =   9.877924866952270E-012
   GDM::BFGS:   lowest Hinv e-value    0.145936472149933     
   GDM::BFGS:   highest Hinv e-value    11.6446647939855     
   GDM::      : max scaling in EWCs is          2.82842712474619     
   GDM::      : max rotation in step is       -0.292392782852931     
   GDM::        grad.step =   -1.11816097811046     
   ------- Leaving GDM -- hopefully with a step in the right direction! --------
 
   22    -806.4661182985      1.55E+00  Gap = 13.57 eV  Descent step
 
   ------------------- Entering Geometric Direct Minimization ------------------
   GDM::trust : actual energy change is        -1.07707415044990     
   GDM::trust : predicted energy change was   -0.200748580654747     
   GDM::trust : updated trust radius is        0.330000000000000     
   GDM:         diagonal hessian shift is      0.000000000000000E+000
   GDM::PreWSS: input subspace size is                 19
   GDM::PreWSS: working subspace size set to           18
   GDM::PrEWSS: # of linearly dependent vectors =            0
   GDM::PrEWSS: Max dev from orthonormality =   3.692879335659427E-012
   GDM::BFGS:   lowest Hinv e-value    0.152024369085100     
   GDM::BFGS:   highest Hinv e-value    11.8631851447906     
   GDM::      : max scaling in EWCs is          2.82842712474619     
   GDM::      : max rotation in step is        0.211212062436735     
   GDM::        grad.step =  -0.937263465073199     
   ------- Leaving GDM -- hopefully with a step in the right direction! --------
 
   23    -807.5431924489      1.15E+00  Gap = 13.57 eV  Descent step
 
   ------------------- Entering Geometric Direct Minimization ------------------
   GDM::trust : actual energy change is       -0.933569327962232     
   GDM::trust : predicted energy change was   -0.154267305619526     
   GDM::trust : updated trust radius is        0.330000000000000     
   GDM:         diagonal hessian shift is      0.000000000000000E+000
   GDM::PreWSS: input subspace size is                 19
   GDM::PreWSS: working subspace size set to           18
   GDM::PrEWSS: # of linearly dependent vectors =            0
   GDM::PrEWSS: Max dev from orthonormality =   2.774239171721149E-012
   GDM::BFGS:   lowest Hinv e-value    0.127189275964719     
   GDM::BFGS:   highest Hinv e-value    20.7585551492386     
   GDM::      : max scaling in EWCs is          2.82842712474619     
   GDM::      : max rotation in step is        0.261745801519528     
   GDM::        grad.step =  -0.979373737121535     
   ------- Leaving GDM -- hopefully with a step in the right direction! --------
 
   24    -808.4767617769      1.35E+00  Gap = 13.57 eV  Descent step
 
   ------------------- Entering Geometric Direct Minimization ------------------
   GDM::trust : actual energy change is       -0.953288719078046     
   GDM::trust : predicted energy change was   -0.136852280761526     
   GDM::trust : updated trust radius is        0.330000000000000     
   GDM:         diagonal hessian shift is      0.000000000000000E+000
   GDM::PreWSS: input subspace size is                 19
   GDM::PreWSS: working subspace size set to           18
   GDM::PrEWSS: # of linearly dependent vectors =            0
   GDM::PrEWSS: Max dev from orthonormality =   1.939275129370088E-012
   GDM::BFGS:   lowest Hinv e-value    0.166025609111820     
   GDM::BFGS:   highest Hinv e-value    12.7710777421306     
   GDM::      : max scaling in EWCs is          2.82842712474619     
   GDM::      : max rotation in step is        0.409364529734631     
   GDM::        grad.step =  -0.931416233842432     
   ------- Leaving GDM -- hopefully with a step in the right direction! --------
 
   25    -809.4300504959      1.24E+00  Gap = 13.57 eV  Descent step
 
   ------------------- Entering Geometric Direct Minimization ------------------
   GDM::trust : actual energy change is       -0.896902374441197     
   GDM::trust : predicted energy change was   -0.156225277419356     
   GDM::trust : updated trust radius is        0.330000000000000     
   GDM:         diagonal hessian shift is      0.000000000000000E+000
   GDM::PreWSS: input subspace size is                 19
   GDM::PreWSS: working subspace size set to           18
   GDM::PrEWSS: # of linearly dependent vectors =            0
   GDM::PrEWSS: Max dev from orthonormality =   1.699924923048712E-012
   GDM::BFGS:   lowest Hinv e-value    0.180074131120027     
   GDM::BFGS:   highest Hinv e-value    13.5500347371794     
   GDM::      : max scaling in EWCs is          2.82842712474619     
   GDM::      : max rotation in step is       -0.259448171651092     
   GDM::        grad.step =  -0.837865786454025     
   ------- Leaving GDM -- hopefully with a step in the right direction! --------
 
   26    -810.3269528704      7.95E-01  Gap = 13.57 eV  Descent step
 
   ------------------- Entering Geometric Direct Minimization ------------------
   GDM::trust : actual energy change is       -0.826382438631299     
   GDM::trust : predicted energy change was   -0.158697321722931     
   GDM::trust : updated trust radius is        0.330000000000000     
   GDM:         diagonal hessian shift is      0.000000000000000E+000
   GDM::PreWSS: input subspace size is                 19
   GDM::PreWSS: working subspace size set to           18
   GDM::PrEWSS: # of linearly dependent vectors =            0
   GDM::PrEWSS: Max dev from orthonormality =   1.823133657929965E-012
   GDM::BFGS:   lowest Hinv e-value    0.143259112432707     
   GDM::BFGS:   highest Hinv e-value    14.5543587863735     
   GDM::      : max scaling in EWCs is          2.82842712474619     
   GDM::      : max rotation in step is       -0.474951864803988     
   GDM::        grad.step =  -0.969752897002082     
   ------- Leaving GDM -- hopefully with a step in the right direction! --------
 
   27    -811.1533353090      1.50E+00  Gap = 13.57 eV  Descent step
 
   ------------------- Entering Geometric Direct Minimization ------------------
   GDM::trust : actual energy change is       -0.920138066114419     
   GDM::trust : predicted energy change was   -0.171914933062716     
   GDM::trust : updated trust radius is        0.330000000000000     
   GDM:         diagonal hessian shift is      0.000000000000000E+000
   GDM::PreWSS: input subspace size is                 19
   GDM::PreWSS: working subspace size set to           18
   GDM::PrEWSS: # of linearly dependent vectors =            0
   GDM::PrEWSS: Max dev from orthonormality =   1.659828524624984E-012
   GDM::BFGS:   lowest Hinv e-value    0.165928542883307     
   GDM::BFGS:   highest Hinv e-value    15.2119774245190     
   GDM::      : max scaling in EWCs is          2.82842712474619     
   GDM::      : max rotation in step is       -0.380260884611214     
   GDM::        grad.step =  -0.835255299022209     
   ------- Leaving GDM -- hopefully with a step in the right direction! --------
 
   28    -812.0734733751      1.27E+00  Gap = 13.57 eV  Descent step
 
   ------------------- Entering Geometric Direct Minimization ------------------
   GDM::trust : actual energy change is       -0.803679875050648     
   GDM::trust : predicted energy change was   -0.179815241438715     
   GDM::trust : updated trust radius is        0.330000000000000     
   GDM:         diagonal hessian shift is      0.000000000000000E+000
   GDM::PreWSS: input subspace size is                 19
   GDM::PreWSS: working subspace size set to           18
   GDM::PrEWSS: # of linearly dependent vectors =            0
   GDM::PrEWSS: Max dev from orthonormality =   1.017845530082440E-012
   GDM::BFGS:   lowest Hinv e-value    0.188135594413928     
   GDM::BFGS:   highest Hinv e-value    17.3001954948263     
   GDM::      : max scaling in EWCs is          2.82842712474619     
   GDM::      : max rotation in step is        0.449487055194270     
   GDM::        grad.step =  -0.671994543315593     
   ------- Leaving GDM -- hopefully with a step in the right direction! --------
 
   29    -812.8771532502      9.81E-01  Gap = 13.57 eV  Descent step
 
   ------------------- Entering Geometric Direct Minimization ------------------
   GDM::trust : actual energy change is       -0.638670097420913     
   GDM::trust : predicted energy change was   -0.157536548020032     
   GDM::trust : updated trust radius is        0.330000000000000     
   GDM:         diagonal hessian shift is      0.000000000000000E+000
   GDM::PreWSS: input subspace size is                 19
   GDM::PreWSS: working subspace size set to           18
   GDM::PrEWSS: # of linearly dependent vectors =            0
   GDM::PrEWSS: Max dev from orthonormality =   6.351794090697638E-013
   GDM::BFGS:   lowest Hinv e-value    0.186026904702849     
   GDM::BFGS:   highest Hinv e-value    15.3746890746464     
   GDM::      : max scaling in EWCs is          2.82842712474619     
   GDM::      : max rotation in step is        0.154803964231266     
   GDM::        grad.step =  -0.562920326199535     
   ------- Leaving GDM -- hopefully with a step in the right direction! --------
 
   30    -813.5158233476      6.54E-01  Gap = 13.57 eV  Descent step
 
   ------------------- Entering Geometric Direct Minimization ------------------
   GDM::trust : actual energy change is       -0.543842577129340     
   GDM::trust : predicted energy change was   -0.149088933522291     
   GDM::trust : updated trust radius is        0.330000000000000     
   GDM:         diagonal hessian shift is      0.000000000000000E+000
   GDM::PreWSS: input subspace size is                 19
   GDM::PreWSS: working subspace size set to           18
   GDM::PrEWSS: # of linearly dependent vectors =            0
   GDM::PrEWSS: Max dev from orthonormality =   7.409923369339211E-013
   GDM::BFGS:   lowest Hinv e-value    0.115136713034330     
   GDM::BFGS:   highest Hinv e-value    20.5246822086125     
   GDM::      : max scaling in EWCs is          2.82842712474619     
   GDM::      : max rotation in step is        0.334710835457712     
   GDM::        grad.step =  -0.612309011911588     
   ------- Leaving GDM -- hopefully with a step in the right direction! --------
 
   31    -814.0596659247      1.04E+00  Gap = 13.57 eV  Descent step
 
   ------------------- Entering Geometric Direct Minimization ------------------
   GDM::trust : actual energy change is       -0.609107910176249     
   GDM::trust : predicted energy change was   -0.147191931620108     
   GDM::trust : updated trust radius is        0.330000000000000     
   GDM:         diagonal hessian shift is      0.000000000000000E+000
   GDM::PreWSS: input subspace size is                 19
   GDM::PreWSS: working subspace size set to           18
   GDM::PrEWSS: # of linearly dependent vectors =            0
   GDM::PrEWSS: Max dev from orthonormality =   8.807919671394160E-013
   GDM::BFGS:   lowest Hinv e-value    0.129998337435702     
   GDM::BFGS:   highest Hinv e-value    18.6810660742123     
   GDM::      : max scaling in EWCs is          2.82842712474619     
   GDM::      : max rotation in step is       -0.651963868490861     
   GDM::        grad.step =  -0.692270289520482     
   ------- Leaving GDM -- hopefully with a step in the right direction! --------
 
   32    -814.6687738349      1.47E+00  Gap = 13.57 eV  Descent step
 
   ------------------- Entering Geometric Direct Minimization ------------------
   GDM::trust : actual energy change is       -0.534741520423495     
   GDM::trust : predicted energy change was   -0.180476492081542     
   GDM::trust : updated trust radius is        0.330000000000000     
   GDM:         diagonal hessian shift is      0.000000000000000E+000
   GDM::PreWSS: input subspace size is                 19
   GDM::PreWSS: working subspace size set to           18
   GDM::PrEWSS: # of linearly dependent vectors =            0
   GDM::PrEWSS: Max dev from orthonormality =   8.323081807093402E-013
   GDM::BFGS:   lowest Hinv e-value    0.161041776152969     
   GDM::BFGS:   highest Hinv e-value    19.5500664734897     
   GDM::      : max scaling in EWCs is          2.82842712474619     
   GDM::      : max rotation in step is        0.438102928323934     
   GDM::        grad.step =  -0.564541811407176     
   ------- Leaving GDM -- hopefully with a step in the right direction! --------
 
   33    -815.2035153553      8.03E-01  Gap = 13.57 eV  Descent step
 
   ------------------- Entering Geometric Direct Minimization ------------------
   GDM::trust : actual energy change is       -0.541191449006192     
   GDM::trust : predicted energy change was   -0.210400948767826     
   GDM::trust : updated trust radius is        0.330000000000000     
   GDM:         diagonal hessian shift is      0.000000000000000E+000
   GDM::PreWSS: input subspace size is                 19
   GDM::PreWSS: working subspace size set to           18
   GDM::PrEWSS: # of linearly dependent vectors =            0
   GDM::PrEWSS: Max dev from orthonormality =   8.015393904159396E-013
   GDM::BFGS:   lowest Hinv e-value    0.154434944413454     
   GDM::BFGS:   highest Hinv e-value    23.3608937083136     
   GDM::      : max scaling in EWCs is          2.82842712474619     
   GDM::      : max rotation in step is        0.136267960714652     
   GDM::        grad.step =  -0.511804283881523     
   ------- Leaving GDM -- hopefully with a step in the right direction! --------
 
   34    -815.7447068043      5.45E-01  Gap = 13.57 eV  Descent step
 
   ------------------- Entering Geometric Direct Minimization ------------------
   GDM::trust : actual energy change is       -0.477549765215031     
   GDM::trust : predicted energy change was   -0.144273474017103     
   GDM::trust : updated trust radius is        0.330000000000000     
   GDM:         diagonal hessian shift is      0.000000000000000E+000
   GDM::PreWSS: input subspace size is                 19
   GDM::PreWSS: working subspace size set to           18
   GDM::PrEWSS: # of linearly dependent vectors =            0
   GDM::PrEWSS: Max dev from orthonormality =   1.033041707731996E-012
   GDM::BFGS:   lowest Hinv e-value    0.153071247366943     
   GDM::BFGS:   highest Hinv e-value    26.5169063450286     
   GDM::      : max scaling in EWCs is          2.82842712474619     
   GDM::      : max rotation in step is        0.190881464168376     
   GDM::        grad.step =  -0.626634884591589     
   ------- Leaving GDM -- hopefully with a step in the right direction! --------
 
   35    -816.2222565696      9.20E-01  Gap = 13.57 eV  Descent step
 
   ------------------- Entering Geometric Direct Minimization ------------------
   GDM::trust : actual energy change is       -0.624530097429101     
   GDM::trust : predicted energy change was   -0.190664988651389     
   GDM::trust : updated trust radius is        0.330000000000000     
   GDM:         diagonal hessian shift is      0.000000000000000E+000
   GDM::PreWSS: input subspace size is                 19
   GDM::PreWSS: working subspace size set to           18
   GDM::PrEWSS: # of linearly dependent vectors =            0
   GDM::PrEWSS: Max dev from orthonormality =   1.276475453115822E-012
   GDM::BFGS:   lowest Hinv e-value    0.120649097011957     
   GDM::BFGS:   highest Hinv e-value    35.0979496961701     
   GDM::      : max scaling in EWCs is          2.82842712474619     
   GDM::      : max rotation in step is        0.595155708059576     
   GDM::        grad.step =   -1.10563955363891     
   ------- Leaving GDM -- hopefully with a step in the right direction! --------
 
   36    -816.8467866670      2.14E+00  Gap = 13.57 eV  Descent step
 
   ------------------- Entering Geometric Direct Minimization ------------------
   GDM::trust : actual energy change is       -0.734167140102841     
   GDM::trust : predicted energy change was   -0.328033881118088     
   GDM::trust : updated trust radius is        0.330000000000000     
   GDM:         diagonal hessian shift is      0.000000000000000E+000
   GDM::PreWSS: input subspace size is                 19
   GDM::PreWSS: working subspace size set to           18
   GDM::PrEWSS: # of linearly dependent vectors =            0
   GDM::PrEWSS: Max dev from orthonormality =   1.248320891100718E-012
   GDM::BFGS:   lowest Hinv e-value    8.941968517337912E-002
   GDM::BFGS:   highest Hinv e-value    46.9902567967817     
   GDM::      : max scaling in EWCs is          2.82842712474619     
   GDM::      : max rotation in step is        0.543096959562358     
   GDM::        grad.step =  -0.723019043397458     
   ------- Leaving GDM -- hopefully with a step in the right direction! --------
 
   37    -817.5809538071      1.27E+00  Gap = 13.57 eV  Descent step
 
   ------------------- Entering Geometric Direct Minimization ------------------
   GDM::trust : actual energy change is       -0.558661328852395     
   GDM::trust : predicted energy change was   -0.445363632982026     
   GDM::trust : updated trust radius is        0.330000000000000     
   GDM:         diagonal hessian shift is      0.000000000000000E+000
   GDM::PreWSS: input subspace size is                 19
   GDM::PreWSS: working subspace size set to           18
   GDM::PrEWSS: # of linearly dependent vectors =            0
   GDM::PrEWSS: Max dev from orthonormality =   1.251023590276290E-012
   GDM::BFGS:   lowest Hinv e-value    0.136813438403911     
   GDM::BFGS:   highest Hinv e-value    33.6261710849568     
   GDM::      : max scaling in EWCs is          2.82842712474619     
   GDM::      : max rotation in step is        0.318105980797549     
   GDM::        grad.step =  -0.553914379753562     
   ------- Leaving GDM -- hopefully with a step in the right direction! --------
 
   38    -818.1396151359      8.54E-01  Gap = 13.57 eV  Descent step
 
   ------------------- Entering Geometric Direct Minimization ------------------
   GDM::trust : actual energy change is       -0.490040040486065     
   GDM::trust : predicted energy change was   -0.206600074801674     
   GDM::trust : updated trust radius is        0.330000000000000     
   GDM:         diagonal hessian shift is      0.000000000000000E+000
   GDM::PreWSS: input subspace size is                 19
   GDM::PreWSS: working subspace size set to           18
   GDM::PrEWSS: # of linearly dependent vectors =            0
   GDM::PrEWSS: Max dev from orthonormality =   7.013487013374231E-013
   GDM::BFGS:   lowest Hinv e-value    0.131526938979577     
   GDM::BFGS:   highest Hinv e-value    43.1762914253390     
   GDM::      : max scaling in EWCs is          2.82842712474619     
   GDM::      : max rotation in step is        0.249271849242064     
   GDM::        grad.step =  -0.396423532462814     
   ------- Leaving GDM -- hopefully with a step in the right direction! --------
 
   39    -818.6296551764      3.38E-01  Gap = 13.57 eV  Descent step
 
   ------------------- Entering Geometric Direct Minimization ------------------
   GDM::trust : actual energy change is       -0.349280512711175     
   GDM::trust : predicted energy change was   -0.149924524671972     
   GDM::trust : updated trust radius is        0.330000000000000     
   GDM:         diagonal hessian shift is      0.000000000000000E+000
   GDM::PreWSS: input subspace size is                 19
   GDM::PreWSS: working subspace size set to           18
   GDM::PrEWSS: # of linearly dependent vectors =            0
   GDM::PrEWSS: Max dev from orthonormality =   6.540046282310641E-013
   GDM::BFGS:   lowest Hinv e-value    9.470780456890300E-002
   GDM::BFGS:   highest Hinv e-value    49.3848277561110     
   GDM::      : max scaling in EWCs is          2.82842712474619     
   GDM::      : max rotation in step is       -0.383966609596216     
   GDM::        grad.step =  -0.384172221726992     
   ------- Leaving GDM -- hopefully with a step in the right direction! --------
 
   40    -818.9789356891      5.52E-01  Gap = 13.57 eV  Descent step
 
   ------------------- Entering Geometric Direct Minimization ------------------
   GDM::trust : actual energy change is       -0.370028072071477     
   GDM::trust : predicted energy change was   -0.228846018970219     
   GDM::trust : updated trust radius is        0.330000000000000     
   GDM:         diagonal hessian shift is      0.000000000000000E+000
   GDM::PreWSS: input subspace size is                 19
   GDM::PreWSS: working subspace size set to           18
   GDM::PrEWSS: # of linearly dependent vectors =            0
   GDM::PrEWSS: Max dev from orthonormality =   7.015152347911169E-013
   GDM::BFGS:   lowest Hinv e-value    0.103500763093552     
   GDM::BFGS:   highest Hinv e-value    45.3449362519242     
   GDM::      : max scaling in EWCs is          2.82842712474619     
   GDM::      : max rotation in step is        0.518641949114632     
   GDM::        grad.step =  -0.442184507538995     
   ------- Leaving GDM -- hopefully with a step in the right direction! --------
 
   41    -819.3489637612      7.47E-01  Gap = 0.00 eV  Descent step
 
   ------------------- Entering Geometric Direct Minimization ------------------
   GDM::trust : actual energy change is       -0.384846413642890     
   GDM::trust : predicted energy change was   -0.197055752259237     
   GDM::trust : updated trust radius is        0.330000000000000     
   GDM:         diagonal hessian shift is      0.000000000000000E+000
   GDM::PreWSS: input subspace size is                 19
   GDM::PreWSS: working subspace size set to           18
   GDM::PrEWSS: # of linearly dependent vectors =            0
   GDM::PrEWSS: Max dev from orthonormality =   4.286675181486288E-013
   GDM::BFGS:   lowest Hinv e-value    0.132488743815765     
   GDM::BFGS:   highest Hinv e-value    59.3444029219623     
   GDM::      : max scaling in EWCs is          2.82842712474619     
   GDM::      : max rotation in step is       -0.363428544292119     
   GDM::        grad.step =  -0.278568584939800     
   ------- Leaving GDM -- hopefully with a step in the right direction! --------
 
   42    -819.7338101749      3.29E-01  Gap = 0.00 eV  Descent step
 
   ------------------- Entering Geometric Direct Minimization ------------------
   GDM::trust : actual energy change is       -0.166811664580905     
   GDM::trust : predicted energy change was   -0.198460833947800     
   GDM::trust : updated trust radius is        0.330000000000000     
   GDM:         diagonal hessian shift is      0.000000000000000E+000
   GDM::PreWSS: input subspace size is                 19
   GDM::PreWSS: working subspace size set to           18
   GDM::PrEWSS: # of linearly dependent vectors =            0
   GDM::PrEWSS: Max dev from orthonormality =   5.348221865375535E-013
   GDM::BFGS:   lowest Hinv e-value    0.230912593811766     
   GDM::BFGS:   highest Hinv e-value    45.1501584953787     
   GDM::      : max scaling in EWCs is          2.82842712474619     
   GDM::      : max rotation in step is       -0.267515814383936     
   GDM::        grad.step =  -0.227656703951878     
   ------- Leaving GDM -- hopefully with a step in the right direction! --------
 
   43    -819.9006218394      2.49E-01  Gap = 0.00 eV  Descent step
 
   ------------------- Entering Geometric Direct Minimization ------------------
   GDM::trust : actual energy change is       -1.827872878504877E-002
   GDM::trust : predicted energy change was   -0.236972775782937     
   GDM::trust : updated trust radius is        0.330000000000000     
   GDM:         diagonal hessian shift is      0.000000000000000E+000
   GDM::PreWSS: input subspace size is                 19
   GDM::PreWSS: working subspace size set to           18
   GDM::PrEWSS: # of linearly dependent vectors =            0
   GDM::PrEWSS: Max dev from orthonormality =   7.308667560046445E-013
   GDM::BFGS:   lowest Hinv e-value    0.128810690059603     
   GDM::BFGS:   highest Hinv e-value    70.8043924708252     
   GDM::      : max scaling in EWCs is          2.82842712474619     
   GDM::      : max rotation in step is       -0.319734425213086     
   GDM::        grad.step =  -0.289955117020775     
   ------- Leaving GDM -- hopefully with a step in the right direction! --------
 
   44    -819.9189005682      3.60E-01  Gap = 0.00 eV  Descent step
 
   ------------------- Entering Geometric Direct Minimization ------------------
   GDM::trust : actual energy change is        3.602434484298556E-002
   GDM::trust : predicted energy change was   -0.435387620077602     
   GDM::trust : updated trust radius is        0.108900000000000     
   GDM::search:  On step            1 .  The current bracket is:
       left   : x =  0.0000E+00, e =      -819.9189005682, g = -0.5150E+00
       current: x =  0.5630E+00, e =      -819.8828762234, g =  0.7693E+00
       right  : x =  0.1000E+04, e =      1000.0000000000, g =  0.1000E+04
       next   : x =  0.2504E+00
   GDM::      : max rotation in step is       -0.142200113081015     
   ------- Leaving GDM -- hopefully with a step in the right direction! --------
 
   45    -819.8828762234      1.66E-01  Gap = 0.00 eV  Line search: overstep
 
   ------------------- Entering Geometric Direct Minimization ------------------
   GDM::trust : actual energy change is       -7.385294124014763E-002
   GDM::trust : predicted energy change was   -0.435387620077602     
   GDM::trust : updated trust radius is        0.108900000000000     
   GDM:         diagonal hessian shift is      0.000000000000000E+000
   GDM::PreWSS: input subspace size is                 19
   GDM::PreWSS: working subspace size set to           18
   GDM::PrEWSS: # of linearly dependent vectors =            0
   GDM::PrEWSS: Max dev from orthonormality =   6.400236243764290E-013
   GDM::BFGS:   lowest Hinv e-value    0.193239759361671     
   GDM::BFGS:   highest Hinv e-value    52.7739280622982     
   GDM::      : max scaling in EWCs is          2.82842712474619     
   GDM::      : max rotation in step is        7.388410156406795E-002
   GDM::        grad.step =  -2.454090679257731E-002
   ------- Leaving GDM -- hopefully with a step in the right direction! --------
 
   46    -819.9927535095      1.03E-01  Gap = 0.00 eV  Descent step
 
   ------------------- Entering Geometric Direct Minimization ------------------
   GDM::trust : actual energy change is       -1.919094092193063E-002
   GDM::trust : predicted energy change was   -1.710129333703096E-002
   GDM::trust : updated trust radius is        0.330000000000000     
   GDM:         diagonal hessian shift is      0.000000000000000E+000
   GDM::PreWSS: input subspace size is                 19
   GDM::PreWSS: working subspace size set to           18
   GDM::PrEWSS: # of linearly dependent vectors =            0
   GDM::PrEWSS: Max dev from orthonormality =   5.142136716429491E-013
   GDM::BFGS:   lowest Hinv e-value    0.224313453893652     
   GDM::BFGS:   highest Hinv e-value    51.8090866205715     
   GDM::trust : dogleg step length is          0.330000000000000     
   GDM::      : max scaling in EWCs is          2.82842712474619     
   GDM::      : max rotation in step is        0.181535748433876     
   GDM::        grad.step =  -2.912339667272073E-002
   ------- Leaving GDM -- hopefully with a step in the right direction! --------
 
   47    -820.0119444504      6.93E-02  Gap = 0.00 eV  Dog-leg BFGS step
 
   ------------------- Entering Geometric Direct Minimization ------------------
   GDM::trust : actual energy change is        2.235464346699700E-002
   GDM::trust : predicted energy change was   -4.235928081500293E-002
   GDM::trust : updated trust radius is        0.108900000000000     
   GDM::search:  On step            1 .  The current bracket is:
       left   : x =  0.0000E+00, e =      -820.0119444504, g = -0.7598E-01
       current: x =  0.3833E+00, e =      -819.9895898069, g =  0.1935E+00
       right  : x =  0.1000E+04, e =      1000.0000000000, g =  0.1000E+04
       next   : x =  0.1084E+00
   GDM::      : max rotation in step is        5.135138786917305E-002
   ------- Leaving GDM -- hopefully with a step in the right direction! --------
 
   48    -819.9895898069      5.17E-02  Gap = 0.00 eV  Line search: overstep
 
   ------------------- Entering Geometric Direct Minimization ------------------
   GDM::trust : actual energy change is       -4.162791547742017E-003
   GDM::trust : predicted energy change was   -4.235928081500293E-002
   GDM::trust : updated trust radius is        0.108900000000000     
   GDM:         diagonal hessian shift is      0.000000000000000E+000
   GDM::PreWSS: input subspace size is                 19
   GDM::PreWSS: working subspace size set to           18
   GDM::PrEWSS: # of linearly dependent vectors =            0
   GDM::PrEWSS: Max dev from orthonormality =   1.315381831235030E-012
   GDM::BFGS:   lowest Hinv e-value    0.217198912242062     
   GDM::BFGS:   highest Hinv e-value    16.2205048383939     
   GDM::      : max scaling in EWCs is          2.82842712474619     
   GDM::      : max rotation in step is        7.428647594918679E-002
   GDM::        grad.step =  -1.336929588890231E-002
   ------- Leaving GDM -- hopefully with a step in the right direction! --------
 
   49    -820.0161072419      4.61E-02  Gap = 0.00 eV  Descent step
 
   ------------------- Entering Geometric Direct Minimization ------------------
   GDM::trust : actual energy change is       -8.561806078205336E-003
   GDM::trust : predicted energy change was   -1.392938154685881E-002
   GDM::trust : updated trust radius is        0.330000000000000     
   GDM:         diagonal hessian shift is      0.000000000000000E+000
   GDM::PreWSS: input subspace size is                 19
   GDM::PreWSS: working subspace size set to           18
   GDM::PrEWSS: # of linearly dependent vectors =            0
   GDM::PrEWSS: Max dev from orthonormality =   7.843253824191265E-012
   GDM::BFGS:   lowest Hinv e-value    0.273883049486029     
   GDM::BFGS:   highest Hinv e-value    17.2147934119418     
   GDM::      : max scaling in EWCs is          2.82842712474619     
   GDM::      : max rotation in step is        0.165709170252250     
   GDM::        grad.step =  -6.627794695854687E-003
   ------- Leaving GDM -- hopefully with a step in the right direction! --------
 
   50    -820.0246690480      3.49E-02  Gap = 0.00 eV  Normal BFGS step
 
   ------------------- Entering Geometric Direct Minimization ------------------
   GDM::trust : actual energy change is        4.415159670884350E-003
   GDM::trust : predicted energy change was   -9.941692043782029E-003
   GDM::trust : updated trust radius is        0.108900000000000     
   GDM::search:  On step            1 .  The current bracket is:
       left   : x =  0.0000E+00, e =      -820.0246690480, g = -0.2571E-01
       current: x =  0.2578E+00, e =      -820.0202538883, g =  0.5938E-01
       right  : x =  0.1000E+04, e =      1000.0000000000, g =  0.1000E+04
       next   : x =  0.7735E-01
   GDM::      : max rotation in step is        4.972792258203765E-002
   ------- Leaving GDM -- hopefully with a step in the right direction! --------
 
   51    -820.0202538883      2.82E-02  Gap = 0.00 eV  Line search: overstep
 
   ------------------- Entering Geometric Direct Minimization ------------------
   GDM::trust : actual energy change is       -9.904090165946400E-004
   GDM::trust : predicted energy change was   -9.941692043782029E-003
   GDM::trust : updated trust radius is        0.108900000000000     
   GDM:         diagonal hessian shift is      0.000000000000000E+000
   GDM::PreWSS: input subspace size is                 19
   GDM::PreWSS: working subspace size set to           18
   GDM::PrEWSS: # of linearly dependent vectors =            0
   GDM::PrEWSS: Max dev from orthonormality =   3.175158053148053E-012
   GDM::BFGS:   lowest Hinv e-value    0.210742597422450     
   GDM::BFGS:   highest Hinv e-value    15.8416493667169     
   GDM::trust : dogleg step length is          0.108900000000000     
   GDM::      : max scaling in EWCs is          2.82842712474619     
   GDM::      : max rotation in step is        9.508803622780414E-002
   GDM::        grad.step =  -4.527485088714656E-003
   ------- Leaving GDM -- hopefully with a step in the right direction! --------
 
   52    -820.0256594570      1.97E-02  Gap = 0.00 eV  Dog-leg BFGS step
 
   ------------------- Entering Geometric Direct Minimization ------------------
   GDM::trust : actual energy change is       -8.367640815549748E-004
   GDM::trust : predicted energy change was   -6.146051487789341E-003
   GDM::trust : updated trust radius is        0.108900000000000     
   GDM:         diagonal hessian shift is      0.000000000000000E+000
   GDM::PreWSS: input subspace size is                 19
   GDM::PreWSS: working subspace size set to           18
   GDM::PrEWSS: # of linearly dependent vectors =            0
   GDM::PrEWSS: Max dev from orthonormality =   2.107126972905604E-012
   GDM::BFGS:   lowest Hinv e-value    0.244597405233876     
   GDM::BFGS:   highest Hinv e-value    14.3300835323350     
   GDM::trust : dogleg step length is          0.108900000000000     
   GDM::      : max scaling in EWCs is          2.82842712474619     
   GDM::      : max rotation in step is        8.042980164870654E-002
   GDM::        grad.step =  -5.361075167939842E-003
   ------- Leaving GDM -- hopefully with a step in the right direction! --------
 
   53    -820.0264962211      1.69E-02  Gap = 51.93 eV  Dog-leg BFGS step
 
   ------------------- Entering Geometric Direct Minimization ------------------
   GDM::trust : actual energy change is       -5.147070852444813E-004
   GDM::trust : predicted energy change was   -8.066730334700243E-003
   GDM::trust : updated trust radius is        0.108900000000000     
   GDM:         diagonal hessian shift is      0.000000000000000E+000
   GDM::PreWSS: input subspace size is                 19
   GDM::PreWSS: working subspace size set to           18
   GDM::PrEWSS: # of linearly dependent vectors =            0
   GDM::PrEWSS: Max dev from orthonormality =   8.720385524796370E-013
   GDM::BFGS:   lowest Hinv e-value    0.222744611256270     
   GDM::BFGS:   highest Hinv e-value    9.39935747368158     
   GDM::trust : dogleg step length is          0.108900000000000     
   GDM::      : max scaling in EWCs is          2.82842712474619     
   GDM::      : max rotation in step is       -3.848136647575208E-002
   GDM::        grad.step =  -6.573082597072902E-003
   ------- Leaving GDM -- hopefully with a step in the right direction! --------
 
   54    -820.0270109282      2.31E-02  Gap = 13.57 eV  Dog-leg BFGS step
 
   ------------------- Entering Geometric Direct Minimization ------------------
   GDM::trust : actual energy change is       -3.131623903982472E-004
   GDM::trust : predicted energy change was   -1.010206941525213E-002
   GDM::trust : updated trust radius is        0.108900000000000     
   GDM:         diagonal hessian shift is      0.000000000000000E+000
   GDM::PreWSS: input subspace size is                 19
   GDM::PreWSS: working subspace size set to           18
   GDM::PrEWSS: # of linearly dependent vectors =            0
   GDM::PrEWSS: Max dev from orthonormality =   2.609775243134216E-012
   GDM::BFGS:   lowest Hinv e-value    0.273283445410179     
   GDM::BFGS:   highest Hinv e-value    9.20923810513647     
   GDM::      : max scaling in EWCs is          2.82842712474619     
   GDM::      : max rotation in step is        4.217931571811206E-002
   GDM::        grad.step =  -5.009012365406984E-003
   ------- Leaving GDM -- hopefully with a step in the right direction! --------
 
   55    -820.0273240906      1.75E-02  Gap = 13.57 eV  Normal BFGS step
 
   ------------------- Entering Geometric Direct Minimization ------------------
   GDM::trust : actual energy change is       -1.337242582167164E-003
   GDM::trust : predicted energy change was   -7.513518548110478E-003
   GDM::trust : updated trust radius is        0.330000000000000     
   GDM:         diagonal hessian shift is      0.000000000000000E+000
   GDM::PreWSS: input subspace size is                 19
   GDM::PreWSS: working subspace size set to           18
   GDM::PrEWSS: # of linearly dependent vectors =            0
   GDM::PrEWSS: Max dev from orthonormality =   1.361338125560607E-012
   GDM::BFGS:   lowest Hinv e-value    0.211437875444100     
   GDM::BFGS:   highest Hinv e-value    6.28274513221207     
   GDM::      : max scaling in EWCs is          2.82842712474619     
   GDM::      : max rotation in step is       -8.126533079609381E-002
   GDM::        grad.step =  -5.289332980555485E-003
   ------- Leaving GDM -- hopefully with a step in the right direction! --------
 
   56    -820.0286613332      1.10E-02  Gap = 13.57 eV  Normal BFGS step
 
   ------------------- Entering Geometric Direct Minimization ------------------
   GDM::trust : actual energy change is        6.876091360368264E-003
   GDM::trust : predicted energy change was   -7.933999470833224E-003
   GDM::trust : updated trust radius is        0.108900000000000     
   GDM::search:  On step            1 .  The current bracket is:
       left   : x =  0.0000E+00, e =      -820.0286613332, g = -0.2944E-01
       current: x =  0.1797E+00, e =      -820.0217852418, g =  0.1059E+00
       right  : x =  0.1000E+04, e =      1000.0000000000, g =  0.1000E+04
       next   : x =  0.3906E-01
   GDM::      : max rotation in step is       -1.766643654630183E-002
   ------- Leaving GDM -- hopefully with a step in the right direction! --------
 
   57    -820.0217852418      1.99E-02  Gap = 13.57 eV  Line search: overstep
 
   ------------------- Entering Geometric Direct Minimization ------------------
   GDM::trust : actual energy change is       -5.745265674477196E-004
   GDM::trust : predicted energy change was   -7.933999470833224E-003
   GDM::trust : updated trust radius is        0.108900000000000     
   GDM:         diagonal hessian shift is      0.000000000000000E+000
   GDM::PreWSS: input subspace size is                 19
   GDM::PreWSS: working subspace size set to           18
   GDM::PrEWSS: # of linearly dependent vectors =            0
   GDM::PrEWSS: Max dev from orthonormality =   1.168350138858187E-012
   GDM::BFGS:   lowest Hinv e-value    0.213960735291943     
   GDM::BFGS:   highest Hinv e-value    4.44401029638788     
   GDM::      : max scaling in EWCs is          2.82842712474619     
   GDM::      : max rotation in step is        3.767272496580640E-002
   GDM::        grad.step =  -1.436470681413641E-003
   ------- Leaving GDM -- hopefully with a step in the right direction! --------
 
   58    -820.0292358597      1.26E-02  Gap = 13.57 eV  Normal BFGS step
 
   ------------------- Entering Geometric Direct Minimization ------------------
   GDM::trust : actual energy change is       -3.956074430107037E-004
   GDM::trust : predicted energy change was   -2.154706022120460E-003
   GDM::trust : updated trust radius is        0.330000000000000     
   GDM:         diagonal hessian shift is      0.000000000000000E+000
   GDM::PreWSS: input subspace size is                 19
   GDM::PreWSS: working subspace size set to           18
   GDM::PrEWSS: # of linearly dependent vectors =            0
   GDM::PrEWSS: Max dev from orthonormality =   9.691362296004868E-013
   GDM::BFGS:   lowest Hinv e-value    0.191787654227805     
   GDM::BFGS:   highest Hinv e-value    4.48760804465375     
   GDM::      : max scaling in EWCs is          2.82842712474619     
   GDM::      : max rotation in step is        1.076638147018319E-002
   GDM::        grad.step =  -5.030216107860892E-004
   ------- Leaving GDM -- hopefully with a step in the right direction! --------
 
   59    -820.0296314672      8.80E-03  Gap = 13.57 eV  Normal BFGS step
 
   ------------------- Entering Geometric Direct Minimization ------------------
   GDM::trust : actual energy change is       -1.667258609359124E-004
   GDM::trust : predicted energy change was   -7.545324161791337E-004
   GDM::trust : updated trust radius is        0.330000000000000     
   GDM:         diagonal hessian shift is      0.000000000000000E+000
   GDM::PreWSS: input subspace size is                 19
   GDM::PreWSS: working subspace size set to           18
   GDM::PrEWSS: # of linearly dependent vectors =            0
   GDM::PrEWSS: Max dev from orthonormality =   1.546530264961987E-012
   GDM::BFGS:   lowest Hinv e-value    0.199224770470010     
   GDM::BFGS:   highest Hinv e-value    5.30900375316330     
   GDM::      : max scaling in EWCs is          2.82842712474619     
   GDM::      : max rotation in step is       -1.307175755221851E-002
   GDM::        grad.step =  -2.307911568193631E-004
   ------- Leaving GDM -- hopefully with a step in the right direction! --------
 
   60    -820.0297981930      6.14E-03  Gap = 13.57 eV  Normal BFGS step
 
   ------------------- Entering Geometric Direct Minimization ------------------
   GDM::trust : actual energy change is        7.288697815965861E-006
   GDM::trust : predicted energy change was   -3.461867352290444E-004
   GDM::trust : updated trust radius is        0.108900000000000     
   GDM::search:  On step            1 .  The current bracket is:
       left   : x =  0.0000E+00, e =      -820.0297981930, g = -0.8322E-02
       current: x =  0.2773E-01, e =      -820.0297909043, g =  0.8855E-02
       right  : x =  0.1000E+04, e =      1000.0000000000, g =  0.1000E+04
       next   : x =  0.1344E-01
   GDM::      : max rotation in step is       -6.335786057496784E-003
   ------- Leaving GDM -- hopefully with a step in the right direction! --------
 
   61    -820.0297909043      6.67E-03  Gap = 13.57 eV  Line search: overstep
 
   ------------------- Entering Geometric Direct Minimization ------------------
   GDM::trust : actual energy change is       -5.595588731921453E-005
   GDM::trust : predicted energy change was   -3.461867352290444E-004
   GDM::trust : updated trust radius is        0.108900000000000     
   GDM:         diagonal hessian shift is      0.000000000000000E+000
   GDM::PreWSS: input subspace size is                 19
   GDM::PreWSS: working subspace size set to           18
   GDM::PrEWSS: # of linearly dependent vectors =            0
   GDM::PrEWSS: Max dev from orthonormality =   1.251155429260464E-012
   GDM::BFGS:   lowest Hinv e-value    0.192658592963886     
   GDM::BFGS:   highest Hinv e-value    4.59875674882260     
   GDM::      : max scaling in EWCs is          2.82842712474619     
   GDM::      : max rotation in step is        9.064164752787167E-003
   GDM::        grad.step =  -1.013988676308468E-004
   ------- Leaving GDM -- hopefully with a step in the right direction! --------
 
   62    -820.0298541489      2.65E-03  Gap = 13.57 eV  Normal BFGS step
 
   ------------------- Entering Geometric Direct Minimization ------------------
   GDM::trust : actual energy change is        1.225459982379107E-006
   GDM::trust : predicted energy change was   -1.520983014462703E-004
   GDM::trust : updated trust radius is        0.108900000000000     
   GDM::search:  On step            1 .  The current bracket is:
       left   : x =  0.0000E+00, e =      -820.0298541489, g = -0.4502E-02
       current: x =  0.2252E-01, e =      -820.0298529235, g =  0.4612E-02
       right  : x =  0.1000E+04, e =      1000.0000000000, g =  0.1000E+04
       next   : x =  0.1113E-01
   GDM::      : max rotation in step is        4.477963770033037E-003
   ------- Leaving GDM -- hopefully with a step in the right direction! --------
 
   63    -820.0298529235      1.44E-03  Gap = 13.57 eV  Line search: overstep
 
   ------------------- Entering Geometric Direct Minimization ------------------
   GDM::trust : actual energy change is       -2.505112411199661E-005
   GDM::trust : predicted energy change was   -1.520983014462703E-004
   GDM::trust : updated trust radius is        0.108900000000000     
   GDM:         diagonal hessian shift is      0.000000000000000E+000
   GDM::PreWSS: input subspace size is                 19
   GDM::PreWSS: working subspace size set to           18
   GDM::PrEWSS: # of linearly dependent vectors =            0
   GDM::PrEWSS: Max dev from orthonormality =   5.387825602332086E-012
   GDM::BFGS:   lowest Hinv e-value    0.191320925136434     
   GDM::BFGS:   highest Hinv e-value    5.01912427797995     
   GDM::      : max scaling in EWCs is          2.82842712474619     
   GDM::      : max rotation in step is       -8.085598507881422E-003
   GDM::        grad.step =  -2.679168995047297E-005
   ------- Leaving GDM -- hopefully with a step in the right direction! --------
 
   64    -820.0298792000      1.65E-03  Gap = 13.57 eV  Normal BFGS step
 
   ------------------- Entering Geometric Direct Minimization ------------------
   GDM::trust : actual energy change is       -1.358643282856065E-005
   GDM::trust : predicted energy change was   -4.018753492570945E-005
   GDM::trust : updated trust radius is        0.330000000000000     
   GDM:         diagonal hessian shift is      0.000000000000000E+000
   GDM::PreWSS: input subspace size is                 19
   GDM::PreWSS: working subspace size set to           18
   GDM::PrEWSS: # of linearly dependent vectors =            0
   GDM::PrEWSS: Max dev from orthonormality =   2.495545436964619E-012
   GDM::BFGS:   lowest Hinv e-value    0.192906810349010     
   GDM::BFGS:   highest Hinv e-value    6.05962309545096     
   GDM::      : max scaling in EWCs is          2.82842712474619     
   GDM::      : max rotation in step is        3.776475648714111E-003
   GDM::        grad.step =  -5.425536790165229E-006
   ------- Leaving GDM -- hopefully with a step in the right direction! --------
 
   65    -820.0298927865      7.06E-04  Gap = 13.57 eV  Normal BFGS step
 
   ------------------- Entering Geometric Direct Minimization ------------------
   GDM::trust : actual energy change is       -2.453267597957165E-006
   GDM::trust : predicted energy change was   -8.138305185247840E-006
   GDM::trust : updated trust radius is        0.330000000000000     
   GDM:         diagonal hessian shift is      0.000000000000000E+000
   GDM::PreWSS: input subspace size is                 19
   GDM::PreWSS: working subspace size set to           18
   GDM::PrEWSS: # of linearly dependent vectors =            0
   GDM::PrEWSS: Max dev from orthonormality =   1.126862492206726E-012
   GDM::BFGS:   lowest Hinv e-value    0.189799908477134     
   GDM::BFGS:   highest Hinv e-value    6.87877205420072     
   GDM::      : max scaling in EWCs is          2.82842712474619     
   GDM::      : max rotation in step is        1.666054835080319E-003
   GDM::        grad.step =  -1.416524595935315E-006
   ------- Leaving GDM -- hopefully with a step in the right direction! --------
 
   66    -820.0298952397      4.81E-04  Gap = 13.57 eV  Normal BFGS step
 
   ------------------- Entering Geometric Direct Minimization ------------------
   GDM::trust : actual energy change is       -4.380984819363221E-007
[...]
   GDM::      : max rotation in step is       -8.910557265219881E-008
   GDM::        grad.step =  -3.473547083033527E-014
   ------- Leaving GDM -- hopefully with a step in the right direction! --------
 
   24    -820.8201493419      1.49E-07  Gap = 53.35 eV  Normal BFGS step
 
   ------------------- Entering Geometric Direct Minimization ------------------
   GDM::trust : actual energy change is        6.821210263296962E-013
   GDM::trust : predicted energy change was   -5.210320624550288E-014
   GDM::trust : updated trust radius is        0.108900000000000     
   GDM::WARNING energy changes are now smaller than effective accuracy.
   GDM::        calculation will continue, but THRESH should be increased
   GDM::        or SCF_CONVERGENCE decreased.
   GDM::        effective_thresh =   1.955780010165498E-009
   GDM:         diagonal hessian shift is      0.000000000000000E+000
   GDM::PreWSS: input subspace size is                 19
   GDM::PreWSS: working subspace size set to           18
   GDM::PrEWSS: # of linearly dependent vectors =           13
   GDM::PrEWSS: Max dev from orthonormality =   5.428851812538937E-013
   GDM::BFGS:   lowest Hinv e-value    0.180707526862535     
   GDM::BFGS:   highest Hinv e-value    10.6511674149254     
   GDM::      : max scaling in EWCs is          2.19338453082396     
   GDM::      : max rotation in step is        4.159498545731289E-008
   GDM::        grad.step =  -7.548906459481756E-015
   ------- Leaving GDM -- hopefully with a step in the right direction! --------
 
   25    -820.8201493419      4.85E-08  Gap = 53.35 eV  Normal BFGS step
 
   ------------------- Entering Geometric Direct Minimization ------------------
   GDM::trust : actual energy change is       -9.094947017729282E-013
   GDM::trust : predicted energy change was   -1.132335968922264E-014
   GDM::trust : updated trust radius is        0.330000000000000     
   GDM:         diagonal hessian shift is      0.000000000000000E+000
   GDM::PreWSS: input subspace size is                 19
   GDM::PreWSS: working subspace size set to           18
   GDM::PrEWSS: # of linearly dependent vectors =           12
   GDM::PrEWSS: Max dev from orthonormality =   1.630112711481502E-012
   GDM::BFGS:   lowest Hinv e-value    0.200828425011534     
   GDM::BFGS:   highest Hinv e-value    10.7059018465682     
   GDM::      : max scaling in EWCs is          2.19338457950792     
   GDM::      : max rotation in step is       -6.188066370799838E-008
   GDM::        grad.step =  -1.756829925305627E-015
   ------- Leaving GDM -- hopefully with a step in the right direction! --------
 
   26    -820.8201493419      2.13E-08  Gap = 53.35 eV  Normal BFGS step
 
   ------------------- Entering Geometric Direct Minimization ------------------
   GDM::trust : actual energy change is        1.591615728102624E-012
   GDM::trust : predicted energy change was   -2.635244887958440E-015
   GDM::trust : updated trust radius is        0.108900000000000     
   GDM::WARNING energy changes are now smaller than effective accuracy.
   GDM::        calculation will continue, but THRESH should be increased
   GDM::        or SCF_CONVERGENCE decreased.
   GDM::        effective_thresh =   1.955780010165498E-009
   GDM:         diagonal hessian shift is      0.000000000000000E+000
   GDM::PreWSS: input subspace size is                 19
   GDM::PreWSS: working subspace size set to           18
   GDM::PrEWSS: # of linearly dependent vectors =           11
   GDM::PrEWSS: Max dev from orthonormality =   6.071710842436850E-012
   GDM::BFGS:   lowest Hinv e-value    0.182871052683136     
   GDM::BFGS:   highest Hinv e-value    11.2805742719367     
   GDM::      : max scaling in EWCs is          2.19338456515287     
   GDM::      : max rotation in step is       -1.114696171173541E-007
   GDM::        grad.step =  -1.740076276054131E-015
   ------- Leaving GDM -- hopefully with a step in the right direction! --------
 
   27    -820.8201493419      1.04E-08  Gap = 53.35 eV  Normal BFGS step
 
   ------------------- Entering Geometric Direct Minimization ------------------
   GDM::trust : actual energy change is       -1.364242052659392E-012
   GDM::trust : predicted energy change was   -2.610114414081195E-015
   GDM::trust : updated trust radius is        0.330000000000000     
   GDM:         diagonal hessian shift is      0.000000000000000E+000
   GDM::PreWSS: input subspace size is                 19
   GDM::PreWSS: working subspace size set to           18
   GDM::PrEWSS: # of linearly dependent vectors =           10
   GDM::PrEWSS: Max dev from orthonormality =   4.182240838368489E-011
   GDM::BFGS:   lowest Hinv e-value    0.179761925661270     
   GDM::BFGS:   highest Hinv e-value    11.3272709237158     
   GDM::      : max scaling in EWCs is          2.19338458791100     
   GDM::      : max rotation in step is        1.437035173899813E-008
   GDM::        grad.step =  -1.210801550702572E-015
   ------- Leaving GDM -- hopefully with a step in the right direction! --------
 
   28    -820.8201493419      1.54E-08  Gap = 53.35 eV  Normal BFGS step
 
   ------------------- Entering Geometric Direct Minimization ------------------
   GDM::trust : actual energy change is       -6.821210263296962E-013
   GDM::trust : predicted energy change was   -1.816202326053858E-015
   GDM::trust : updated trust radius is        0.330000000000000     
   GDM:         diagonal hessian shift is      0.000000000000000E+000
   GDM::PreWSS: input subspace size is                 19
   GDM::PreWSS: working subspace size set to           18
   GDM::PrEWSS: # of linearly dependent vectors =           10
   GDM::PrEWSS: Max dev from orthonormality =   8.790062774877150E-011
   GDM::BFGS:   lowest Hinv e-value    0.185561519035373     
   GDM::BFGS:   highest Hinv e-value    8.98926103694808     
   GDM::      : max scaling in EWCs is          2.19338456429783     
   GDM::      : max rotation in step is        2.463452691370774E-008
   GDM::        grad.step =  -2.614752869496054E-016
   ------- Leaving GDM -- hopefully with a step in the right direction! --------
 
   29    -820.8201493419      4.76E-09 Convergence criterion met
 ---------------------------------------
 One-Electron    Energy = -1936.1244600944
 Total Coulomb   Energy =   791.8979288737
 Alpha Exchange  Energy =    -7.4327048732
 Beta  Exchange  Energy =    -6.8060592107
 DFT   Exchange  Energy =   -56.8694716737
 DFT Correlation Energy =    -3.1741975163
 Nuclear Repu.   Energy =   397.6888151527
 Nuclear Attr.   Energy = -2730.3034611236
 Kinetic         Energy =   794.1790010292
 <S^2> = 6.0979
 SCF time:  CPU 194.47 s  wall 19.53 s
 SCF   energy in the final basis set = -820.8201493419
 Total energy in the final basis set = -820.8201493419
 
 --------------------------------------------------------------
 
                    Orbital Energies (a.u.)
 --------------------------------------------------------------
 
 Alpha MOs
 -- Occupied --
-89.061 -19.262 -19.262 -19.224 -19.224 -19.224  -8.116  -6.081
 -6.078  -6.076  -2.097  -1.311  -1.309  -1.299  -1.128  -1.037
 -1.004  -0.982  -0.954  -0.709  -0.530  -0.510  -0.508  -0.471
 -0.459  -0.429  -0.416  -0.415  -0.411  -0.400  -0.399  -0.380
 -0.377  -0.371  -0.364  -0.272
 -- Virtual --
 -0.094  -0.069  -0.056  -0.045  -0.025  -0.013  -0.001   0.021
  0.022   0.023   0.035   0.057   0.065   0.075   0.097   0.134
  0.138   0.151   0.158   0.176   0.181   0.188   0.191   0.192
  0.207   0.216   0.233   0.250   0.252   0.265   0.271   0.274
  0.287   0.290   0.303   0.320   0.354   0.355   0.383   0.401
  0.442   0.449   0.500   0.528   0.590   0.651   0.654   0.659
  0.768   0.876   0.970   0.988   0.995   1.097   1.106   1.109
  1.125   1.136   1.153   1.179   1.192   1.198   1.223   1.235
  1.242   1.259   1.293   1.522   1.604   1.619   1.656   1.666
  1.702   1.707   1.714   1.720   1.734   1.745   1.749   1.758
  1.774   1.777   1.781   1.788   1.800   1.813   1.859   1.878
  1.881   1.912   1.915   1.950   1.988   2.027   2.114   2.488
  2.642  13.082
 
 Beta MOs
 -- Occupied --
-89.057 -19.228 -19.228 -19.219 -19.219 -19.203  -8.112  -6.078
 -6.074  -6.065  -2.104  -1.315  -1.315  -1.305  -1.116  -1.024
 -0.912  -0.894  -0.883  -0.683  -0.523  -0.499  -0.471  -0.397
 -0.389  -0.383  -0.376  -0.364  -0.356  -0.348  -0.343  -0.331
 -- Virtual --
 -0.227  -0.216  -0.179  -0.164  -0.089  -0.060  -0.040  -0.037
 -0.017  -0.006   0.006   0.024   0.027   0.028   0.039   0.062
  0.072   0.078   0.100   0.136   0.146   0.154   0.164   0.184
  0.188   0.195   0.198   0.204   0.219   0.225   0.240   0.254
  0.257   0.268   0.272   0.278   0.290   0.292   0.306   0.322
  0.355   0.362   0.388   0.407   0.452   0.463   0.506   0.541
  0.598   0.659   0.683   0.686   0.776   0.888   1.000   1.005
  1.045   1.122   1.135   1.150   1.153   1.182   1.183   1.201
  1.213   1.226   1.245   1.254   1.261   1.291   1.302   1.565
  1.612   1.655   1.698   1.702   1.741   1.743   1.751   1.758
  1.761   1.770   1.791   1.805   1.810   1.823   1.825   1.835
  1.837   1.840   1.887   1.902   1.921   1.935   1.943   1.977
  2.011   2.043   2.175   2.495   2.649  13.083
 --------------------------------------------------------------
 
          Ground-State Mulliken Net Atomic Charges

     Atom                 Charge (a.u.)    Spin (a.u.)
  --------------------------------------------------------
      1 Zr                    1.782794      -0.338215
      2 O                    -0.391591       1.258436
      3 O                    -0.699559       0.156775
      4 O                    -0.699909       0.156473
      5 O                    -0.471331       0.835245
      6 O                    -0.391308       1.259176
      7 S                     0.870903       0.672109
  --------------------------------------------------------
  Sum of atomic charges =     0.000000
  Sum of spin   charges =     4.000000

 -----------------------------------------------------------------
                    Cartesian Multipole Moments
 -----------------------------------------------------------------
    Charge (ESU x 10^10)
                 0.0000
    Dipole Moment (Debye)
         X      -2.2398      Y      -2.1877      Z      -2.6610
       Tot       4.1090
    Quadrupole Moments (Debye-Ang)
        XX     -65.6977     XY       0.6857     YY     -65.6951
        XZ       1.1386     YZ       1.1175     ZZ     -63.1835
    Octopole Moments (Debye-Ang^2)
       XXX       8.1472    XXY      -4.5645    XYY      -4.3155
       YYY       8.0875    XXZ      12.2407    XYZ      -7.4001
       YYZ      12.3446    XZZ       2.0865    YZZ       2.2687
       ZZZ      11.0815
    Hexadecapole Moments (Debye-Ang^3)
      XXXX    -481.4918   XXXY     -98.5657   XXYY    -146.9281
      XYYY     -99.0777   YYYY    -475.0204   XXXZ    -125.2049
      XXYZ     -33.5303   XYYZ     -34.4413   YYYZ    -123.9325
      XXZZ    -157.9040   XYZZ     -17.6025   YYZZ    -157.4136
      XZZZ    -106.1377   YZZZ    -104.3047   ZZZZ    -587.8347
 -----------------------------------------------------------------
 Calculating analytic gradient of the SCF energy
 Gradient of SCF Energy
            1           2           3           4           5           6
    1   0.0001159  -0.0001384   0.0000147   0.0000348  -0.0000605   0.0000041
    2   0.0000289  -0.0000499   0.0000840   0.0000001  -0.0000624  -0.0000120
    3  -0.0002425  -0.0000438   0.0000778   0.0000498   0.0001516  -0.0000031
            7
    1   0.0000296
    2   0.0000114
    3   0.0000102
 Max gradient component =       2.425E-04
 RMS gradient           =       8.323E-05
 Gradient time:  CPU 20.46 s  wall 2.39 s
 Geometry Optimization Parameters
   NAtoms,    NIC,     NZ,  NCons,   NDum,   NFix, NCnnct, MaxDiis
        7      97       0       0       0       0       0       0

 Cartesian Hessian Update
 Hessian Updated using BFGS Update


** GEOMETRY OPTIMIZATION IN DELOCALIZED INTERNAL COORDINATES **
   Searching for a Minimum

   Optimization Cycle:  53

                       Coordinates (Angstroms)
     ATOM                X               Y               Z
      1  Zr        0.1568500588    0.1549490823    0.2879364289
      2  O         2.1317592924    0.5663551059    0.2412226474
      3  O         0.0674076310   -1.6389936466   -1.0890851098
      4  O        -1.6462434818    0.0863015197   -1.0787802960
      5  O        -0.0375781361   -0.0521751554    2.1717512409
      6  O         0.5909289408    2.1260517362    0.2555027643
      7  S        -1.2631243051   -1.2424886421   -1.8285476757
   Point Group: c1    Number of degrees of freedom:    15


   Energy is   -820.820149342

 Hessian Updated using BFGS Update

 15 Hessian modes will be used to form the next step
  Hessian Eigenvalues:
     0.002367    0.004245    0.018795    0.033132    0.052304    0.063257
     0.068868    0.095029    0.146393    0.152930    0.168484    0.202172
     0.281209    0.317128    0.412514

 Minimum Search - Taking Simple RFO Step
 Searching for Lamda that Minimizes Along All modes
 Value Taken    Lamda =   0.00000000
 Step Taken.  Stepsize is  0.004915

                             Maximum     Tolerance    Cnvgd?
         Gradient           0.000131      0.000300     YES
         Displacement       0.002612      0.001200      NO
         Energy change     -0.000001      0.000001     YES


                       Distance Matrix (Angstroms)
             Zr(  1)   O (  2)   O (  3)   O (  4)   O (  5)   O (  6)
   O (  2)  2.017846
   O (  3)  2.263276  3.300732
   O (  4)  2.263575  4.030653  2.431738
   O (  5)  1.905114  2.969098  3.627957  3.629454
   O (  6)  2.018594  2.192491  4.032066  3.308449  2.968451
   S (  7)  2.906659  4.368192  1.573002  1.573091  4.349851  4.373539

 
 Final energy is   -820.820149341916     


 ******************************
 **  OPTIMIZATION CONVERGED  **
 ******************************

                       Coordinates (Angstroms)
     ATOM                X               Y               Z
      1  Zr        0.1568500588    0.1549490823    0.2879364289
      2  O         2.1317592924    0.5663551059    0.2412226474
      3  O         0.0674076310   -1.6389936466   -1.0890851098
      4  O        -1.6462434818    0.0863015197   -1.0787802960
      5  O        -0.0375781361   -0.0521751554    2.1717512409
      6  O         0.5909289408    2.1260517362    0.2555027643
      7  S        -1.2631243051   -1.2424886421   -1.8285476757

Z-matrix Print:
$molecule
0 5
Zr
O  1 1.905114
O  1 2.017846 2 98.333924
O  1 2.018594 2 98.279155 3 66.587664 0
O  1 2.263276 2 120.757745 3 -107.828376 0
S  5 1.573002 1 96.871645 2 -113.832495 0
O  6 1.573091 5 101.237089 1 1.964304 0
$end

 
 --------------------------------------------------------------
 
                    Orbital Energies (a.u.)
 --------------------------------------------------------------
 
 Alpha MOs
 -- Occupied --
-89.061 -19.262 -19.262 -19.224 -19.224 -19.224  -8.116  -6.081
 -6.078  -6.076  -2.097  -1.311  -1.309  -1.299  -1.128  -1.037
 -1.004  -0.982  -0.954  -0.709  -0.530  -0.510  -0.508  -0.471
 -0.459  -0.429  -0.416  -0.415  -0.411  -0.400  -0.399  -0.380
 -0.377  -0.371  -0.364  -0.272
 -- Virtual --
 -0.094  -0.069  -0.056  -0.045  -0.025  -0.013  -0.001   0.021
  0.022   0.023   0.035   0.057   0.065   0.075   0.097   0.134
  0.138   0.151   0.158   0.176   0.181   0.188   0.191   0.192
  0.207   0.216   0.233   0.250   0.252   0.265   0.271   0.274
  0.287   0.290   0.303   0.320   0.354   0.355   0.383   0.401
  0.442   0.449   0.500   0.528   0.590   0.651   0.654   0.659
  0.768   0.876   0.970   0.988   0.995   1.097   1.106   1.109
  1.125   1.136   1.153   1.179   1.192   1.198   1.223   1.235
  1.242   1.259   1.293   1.522   1.604   1.619   1.656   1.666
  1.702   1.707   1.714   1.720   1.734   1.745   1.749   1.758
  1.774   1.777   1.781   1.788   1.800   1.813   1.859   1.878
  1.881   1.912   1.915   1.950   1.988   2.027   2.114   2.488
  2.642  13.082
 
 Beta MOs
 -- Occupied --
-89.057 -19.228 -19.228 -19.219 -19.219 -19.203  -8.112  -6.078
 -6.074  -6.065  -2.104  -1.315  -1.315  -1.305  -1.116  -1.024
 -0.912  -0.894  -0.883  -0.683  -0.523  -0.499  -0.471  -0.397
 -0.389  -0.383  -0.376  -0.364  -0.356  -0.348  -0.343  -0.331
 -- Virtual --
 -0.227  -0.216  -0.179  -0.164  -0.089  -0.060  -0.040  -0.037
 -0.017  -0.006   0.006   0.024   0.027   0.028   0.039   0.062
  0.072   0.078   0.100   0.136   0.146   0.154   0.164   0.184
  0.188   0.195   0.198   0.204   0.219   0.225   0.240   0.254
  0.257   0.268   0.272   0.278   0.290   0.292   0.306   0.322
  0.355   0.362   0.388   0.407   0.452   0.463   0.506   0.541
  0.598   0.659   0.683   0.686   0.776   0.888   1.000   1.005
  1.045   1.122   1.135   1.150   1.153   1.182   1.183   1.201
  1.213   1.226   1.245   1.254   1.261   1.291   1.302   1.565
  1.612   1.655   1.698   1.702   1.741   1.743   1.751   1.758
  1.761   1.770   1.791   1.805   1.810   1.823   1.825   1.835
  1.837   1.840   1.887   1.902   1.921   1.935   1.943   1.977
  2.011   2.043   2.175   2.495   2.649  13.083
 --------------------------------------------------------------
 
          Ground-State Mulliken Net Atomic Charges

     Atom                 Charge (a.u.)    Spin (a.u.)
  --------------------------------------------------------
      1 Zr                    1.782794      -0.338215
      2 O                    -0.391591       1.258436
      3 O                    -0.699559       0.156775
      4 O                    -0.699909       0.156473
      5 O                    -0.471331       0.835245
      6 O                    -0.391308       1.259176
      7 S                     0.870903       0.672109
  --------------------------------------------------------
  Sum of atomic charges =     0.000000
  Sum of spin   charges =     4.000000

 -----------------------------------------------------------------
                    Cartesian Multipole Moments
 -----------------------------------------------------------------
    Charge (ESU x 10^10)
                 0.0000
    Dipole Moment (Debye)
         X      -2.2398      Y      -2.1877      Z      -2.6610
       Tot       4.1090
    Quadrupole Moments (Debye-Ang)
        XX     -65.6977     XY       0.6857     YY     -65.6951
        XZ       1.1386     YZ       1.1175     ZZ     -63.1835
    Octopole Moments (Debye-Ang^2)
       XXX       8.1472    XXY      -4.5645    XYY      -4.3155
       YYY       8.0875    XXZ      12.2407    XYZ      -7.4001
       YYZ      12.3446    XZZ       2.0865    YZZ       2.2687
       ZZZ      11.0815
    Hexadecapole Moments (Debye-Ang^3)
      XXXX    -481.4918   XXXY     -98.5657   XXYY    -146.9281
      XYYY     -99.0777   YYYY    -475.0204   XXXZ    -125.2049
      XXYZ     -33.5303   XYYZ     -34.4413   YYYZ    -123.9325
      XXZZ    -157.9040   XYZZ     -17.6025   YYZZ    -157.4136
      XZZZ    -106.1377   YZZZ    -104.3047   ZZZZ    -587.8347
 -----------------------------------------------------------------
Archival summary:
1\1\hpc3465\OPT\ProcedureUnspecified\BasisUnspecified\r115(\liqiuy\FriJan1720:23:562020FriJan1720:23:562020\0\\#,OPT,ProcedureUnspecified,BasisUnspecified,\\28,5\Zr\O,1,1.90511\O,1,2.01785,2,98.3339\O,1,2.01859,2,98.2792,3,66.5877,0\O,1,2.26328,2,120.758,3,-107.828,0\S,5,1.573,1,96.8716,2,-113.832,0\O,6,1.57309,5,101.237,1,1.9643,0\\\@

 Total job time:  1407.90s(wall), 14577.53s(cpu) 
 Fri Jan 17 20:23:56 2020

        *************************************************************
        *                                                           *
        *  Thank you very much for using Q-Chem.  Have a nice day.  *
        *                                                           *
        *************************************************************


0 sent ACK to 0 
now end server 0 ... 
cleanup process ... done
