
Running Job 1 of 2 ZrOx.in
qchem ZrOx.in_29931.0 /tmp/5732843.priya/ZrOx.save/ 1
/usr/usc/qchem/4.4/bin/mpi/mpirun_qchem -machinefile /usr/usc/qchem/4.4/bin/mpi/machines -np 1 /usr/usc/qchem/4.4/exe/qcprog.exe ZrOx.in_29931.0 /tmp/5732843.priya/ZrOx.save/

Process 0 of 1 is on hpc0488.hpcc.usc.edu - thread support 0
initial socket setup ...start
initial socket setup ...done 
now start server 0 ... 
Check license passed

                  Welcome to Q-Chem
     A Quantum Leap Into The Future Of Chemistry


 Q-Chem 4.4, Q-Chem, Inc., Pleasanton, CA (2016)

 Y. Shao,  Z. Gan,  E. Epifanovsky,  A. T. B. Gilbert,  M. Wormit,  
 J. Kussmann,  A. W. Lange,  A. Behn,  J. Deng,  X. Feng,  D. Ghosh,  
 M. Goldey,  P. R. Horn,  L. D. Jacobson,  I. Kaliman,  F.Rob,  
 R. Z. Khaliullin,  T. Kus,  A. Landau,  J. Liu,  E. I. Proynov,  Y. M. Rhee,  
 R. M. Richard,  M. A. Rohrdanz,  R. P. Steele,  E. J. Sundstrom,  
 H. L. Woodcock III,  P. M. Zimmerman,  D. Zuev,  B. Albrecht,  E. Alguire,  
 B. Austin,  S. A. Baeppler,  G. J. O. Beran,  Y. A. Bernard,  E. Berquist,  
 K. Brandhorst,  K. B. Bravaya,  S. T. Brown,  D. Casanova,  C.-M. Chang,  
 Y. Chen,  S. H. Chien,  K. D. Closser,  M. P. Coons,  D. L. Crittenden,  
 S. Dasgupta,  M. Diedenhofen,  R. A. DiStasio Jr.,  H. Do,  A. D. Dutoi,  
 R. G. Edgar,  P.-T. Fang,  S. Fatehi,  Q. Feng,  L. Fusti-Molnar,  
 A. Ghysels,  A. Golubeva-Zadorozhnaya,  J. Gomes,  A. Gunina,  
 M. W. D. Hanson-Heine,  P. H. P. Harbach,  A. W. Hauser,  E. G. Hohenstein,  
 Z. C. Holden,  K. Hui,  T.-C. Jagau,  H. Ji,  B. Kaduk,  K. Khistyaev,  
 Jaehoon Kim,  Jihan Kim,  R. A. King,  P. Klunzinger,  D. Kosenkov,  
 T. Kowalczyk,  C. M. Krauter,  A. Kunitsa,  K. U. Lao,  A. Laurent,  
 K. V. Lawler,  D. Lefrancois,  S. Lehtola,  S. V. Levchenko,  C. Y. Lin,  
 Y.-S. Lin,  F. Liu,  E. Livshits,  R. C. Lochan,  A. Luenser,  P. Manohar,  
 S. F. Manzer,  S.-P. Mao,  Y. Mao,  N. Mardirossian,  A. V. Marenich,  
 L. A. Martinez-Martinez,  S. A. Maurer,  N. J. Mayhall,  J.-M. Mewes,  
 A. F. Morrison,  K. Nanda,  C. M. Oana,  R. Olivares-Amaya,  D. P. O'Neill,  
 J. A. Parkhill,  T. M. Perrine,  R. Peverati,  P. A. Pieniazek,  F. Plasser,  
 A. Prociuk,  D. R. Rehn,  E. Rosta,  N. J. Russ,  N. Sergueev,  
 S. M. Sharada,  S. Sharma,  D. W. Small,  A. Sodt,  T. Stauch,  T. Stein,  
 D. Stuck,  Y.-C. Su,  A. J. W. Thom,  T. Tsuchimochi,  L. Vogt,  O. Vydrov,  
 T. Wang,  M. A. Watson,  J. Wenzel,  A. White,  C. F. Williams,  
 V. Vanovschi,  S. Yeganeh,  S. R. Yost,  Z.-Q. You,  I. Y. Zhang,  X. Zhang,  
 Y. Zhao,  B. R. Brooks,  G. K. L. Chan,  D. M. Chipman,  C. J. Cramer,  
 W. A. Goddard III,  M. S. Gordon,  W. J. Hehre,  A. Klamt,  
 H. F. Schaefer III,  M. W. Schmidt,  C. D. Sherrill,  D. G. Truhlar,  
 A. Warshel,  X. Xu,  A. Aspuru-Guzik,  R. Baer,  A. T. Bell,  N. A. Besley,  
 J.-D. Chai,  A. Dreuw,  B. D. Dunietz,  T. R. Furlani,  S. R. Gwaltney,  
 C.-P. Hsu,  Y. Jung,  J. Kong,  D. S. Lambrecht,  W. Liang,  C. Ochsenfeld,  
 V. A. Rassolov,  L. V. Slipchenko,  J. E. Subotnik,  T. Van Voorhis,  
 J. M. Herbert,  A. I. Krylov,  P. M. W. Gill,  M. Head-Gordon

 Contributors to earlier versions of Q-Chem not listed above: 
 R. D. Adamson,  J. Baker,  E. F. C. Byrd,  A. K. Chakraborty,  C.-L. Cheng,  
 H. Dachsel,  R. J. Doerksen,  G. Hawkins,  A. Heyden,  S. Hirata,  
 G. Kedziora,  F. J. Keil,  C. Kelley,  P. P. Korambath,  W. Kurlancheek,  
 A. M. Lee,  M. S. Lee,  D. Liotard,  I. Lotan,  P. E. Maslen,  N. Nair,  
 D. Neuhauser,  R. Olson,  B. Peters,  J. Ritchie,  N. E. Schultz,  
 N. Shenvi,  A. C. Simmonett,  K. S. Thanthiriwatte,  Q. Wu,  W. Zhang

 Please cite Q-Chem as follows:
 Y. Shao et al., Mol. Phys. 113, 184-215 (2015)
 DOI: 10.1080/00268976.2014.952696

 Q-Chem 4.4.1 for Intel X86 Linux

 Parts of Q-Chem use Armadillo 5.200.1 (Boston Tea Smuggler).
 http://arma.sourceforge.net/

 Q-Chem begins on Fri Jan 17 20:00:12 2020  

Host: 
0

     Scratch files written to /tmp/5732843.priya/ZrOx.save//
 Jul2716 11668_ 21447  21445 5558   
 Parallel job on  1  processors
Processing $rem in /usr/usc/qchem/4.4/config/preferences.
 MEM_TOTAL  2000 

Checking the input file for inconsistencies... 	...done.

--------------------------------------------------------------
User input:
--------------------------------------------------------------
$comment
--------------------------------------------------------
A SINGLE POINT DFT CALCULATION WITH BASIS SET PROJECTION
--------------------------------------------------------
$end

$molecule
0 1
Zr 0.00000 0.00000 1.79340
O 1.44288 0.00000 2.74080
O -1.44288 0.00000 2.74080
O 0.00000 0.00000 -0.12048
Zr 0.00000 0.00000 -2.09610
O 0.00000 0.00000 -3.80177
$end

$rem
JOBTYPE   SP
METHOD   B3LYP
BASIS   GEN
ECP   GEN
MAX_SCF_CYCLES   200
SCF_CONVERGENCE 8
SCF_PRINT 1
PDB_PRINT 2
THRESH 14
VARTHRESH 14
INCDFT FALSE
SYMMETRY False
Sym_ignore True
SCF_ALGORITHM GDM
XC_GRID 000128000302
DFT_D           EMPIRICAL_GRIMME3
DFT_D3_S6       1000
DFT_D3_RS6     1261
DFT_D3_S8      1703
DFT_D3_3BODY    FALSE
$end

$basis
O
6-31+G**
****
S
6-31+G**
****
Zr
LanL2DZ
****
$end

$ecp
Zr
LanL2DZ
****
$end

--------------------------------------------------------------
 ----------------------------------------------------------------
             Standard Nuclear Orientation (Angstroms)
    I     Atom           X                Y                Z
 ----------------------------------------------------------------
    1      Zr      0.0000000000     0.0000000000     1.7934000000
    2      O       1.4428800000     0.0000000000     2.7408000000
    3      O      -1.4428800000     0.0000000000     2.7408000000
    4      O       0.0000000000     0.0000000000    -0.1204800000
    5      Zr      0.0000000000     0.0000000000    -2.0961000000
    6      O       0.0000000000     0.0000000000    -3.8017700000
 ----------------------------------------------------------------
 Nuclear Repulsion Energy =   241.8832858508 hartrees
 There are       28 alpha and       28 beta electrons

 Q-Chem warning in module /home/scratch/svnadmin/11668_zgan/qchem/forms1/BasisType.C, line 1419:

 Setting pure/cartesian flag to 2111 for general basis


 Requested basis set is non-standard
 There are 36 shells and 116 basis functions

 Total QAlloc Memory Limit   2000 MB
 Mega-Array Size        61 MB
 MEM_STATIC part        62 MB

                       Distance Matrix (Angstroms)
             Zr(  1)   O (  2)   O (  3)   O (  4)   Zr(  5)
   O (  2)  1.726114
   O (  3)  1.726114  2.885760
   O (  4)  1.913880  3.204501  3.204501
   Zr(  5)  3.889500  5.047525  5.047525  1.975620
   O (  6)  5.595170  6.699785  6.699785  3.681290  1.705670
 
 A cutoff of  1.0D-14 yielded    623 shell pairs
 There are      6564 function pairs (      7508 Cartesian)
 
 -------------------------------------------------------
 OpenMP Integral Computing Module                       
 Release: version 1.0, May 2013, Q-Chem Inc. Pittsburgh 
 -------------------------------------------------------
 Integral Job Info:
 Integral job number is                      11
 Integral operator is                         1
 short-range coefficients                     0
 long-range coefficients              100000000
 Omega coefficients                           0
 if combine SR and LR in K                    0
 Integral screening is                        0
 Integral computing path is                   2
 max size of driver memory is            800000
 size of driver memory is                593474
 size of scratch memory is             11771240
 max col of scratch BK array               1296
 max len of scratch array in speh3          155
 max len of scratch index in speh4           18
 max int batch size is                      520
 min int batch size is                       52
 fixed nKL is                                52
 max L of basis functions is                  2
 order of int derivative is                   0
 number of shells is                         36
 number of basis is                         124
 number of cartesian basis is               124
 number of contracted shell pairs           623
 number of primitive shell pairs           2744
 maxK2 (contraction) of shell pair           36
 max number of K2 of shell pair               1
 max number of CS2 of shell pair             44
 max number of PS2 of shell pair            180
 mem total for path MDJ                   29320
 -------------------------------------------------------
 Requested basis set is non-standard
 Compound shells will be simplified
 There are 48 shells and 116 basis functions
 A cutoff of  1.0D-14 yielded   1096 shell pairs
 There are      6528 function pairs (      7472 Cartesian)
 Smallest overlap matrix eigenvalue = 7.23E-04

 Scale SEOQF with 1.000000e-01/1.000000e-01/1.000000e-01

 Standard Electronic Orientation quadrupole field applied
 Nucleus-field energy     =    -0.0000000339 hartrees
 Guess MOs from core Hamiltonian diagonalization
 A restricted hybrid HF-DFT SCF calculation will be
 performed using Geometric Direct Minimization
 Exchange:     0.2000 Hartree-Fock + 0.0800 Slater + 0.7200 B88
 Correlation:  0.1900 VWN1RPA + 0.8100 LYP
 Using Euler-Maclaurin-Lebedev (128,302) quadrature formula
 Dispersion:   Grimme D3
 SCF converges when RMS gradient is below 1.0E-08
 Maximum number of minimization steps = 200
 using 12 threads for integral computing 
 -------------------------------------------------------
 OpenMP BLAS3 based DFT computing Module                
 Release: version 1.0, May 2013, Q-Chem Inc. Pittsburgh 
 -------------------------------------------------------
 
   ------------------- Entering Geometric Direct Minimization ------------------
   GDM:         diagonal hessian shift is      0.000000000000000E+000
   GDM::PreWSS: input subspace size is                  1
   GDM::PreWSS: working subspace size set to            1
   GDM::PrEWSS: # of linearly dependent vectors =            0
   GDM::PrEWSS: Max dev from orthonormality =   2.220446049250313E-016
   GDM::BFGS:   lowest Hinv e-value     1.00000000000000     
   GDM::BFGS:   highest Hinv e-value    1.00000000000000     
   GDM::      : max scaling in EWCs is          1.41421356237309     
   GDM::      : max rotation in step is        0.148446275366662     
   GDM::        grad.step =   -2.08482671474427     
   ------- Leaving GDM -- hopefully with a step in the right direction! --------
 
 ---------------------------------------
  Cycle       Energy        RMS Gradient
 ---------------------------------------
    1    -362.8506790011      2.01E+00  Gap = 94.77 eV  Descent step
 
   ------------------- Entering Geometric Direct Minimization ------------------
   GDM::trust : actual energy change is        -4.09330815051339     
   GDM::trust : predicted energy change was   -0.163350000000000     
   GDM::trust : updated trust radius is        0.330000000000000     
   GDM:         diagonal hessian shift is      0.000000000000000E+000
   GDM::PreWSS: input subspace size is                  2
   GDM::PreWSS: working subspace size set to            2
   GDM::PrEWSS: # of linearly dependent vectors =            0
   GDM::PrEWSS: Max dev from orthonormality =   7.775030619328049E-015
   GDM::BFGS:   lowest Hinv e-value    0.621915604131010     
   GDM::BFGS:   highest Hinv e-value    2.73547623320546     
   GDM::      : max scaling in EWCs is          1.41421356237309     
   GDM::      : max rotation in step is        9.964582165705606E-002
   GDM::        grad.step =   -1.92850683525142     
   ------- Leaving GDM -- hopefully with a step in the right direction! --------
 
    2    -366.9439871516      1.53E+00  Gap = 0.00 eV  Descent step
 
   ------------------- Entering Geometric Direct Minimization ------------------
   GDM::trust : actual energy change is        -3.77394903375261     
   GDM::trust : predicted energy change was   -0.136769339338539     
   GDM::trust : updated trust radius is        0.330000000000000     
   GDM::search:  On step            1 .  The current bracket is:
       left   : x =  0.0000E+00, e =      -366.9439871516, g = -0.5982E+01
       current: x =  0.3224E+00, e =      -370.7179361854, g = -0.5654E+01
       right  : x =  0.1000E+04, e =      1000.0000000000, g =  0.1000E+04
       next   : x =  0.3224E+01
   GDM::      : max rotation in step is        0.996458216570561     
   ------- Leaving GDM -- hopefully with a step in the right direction! --------
 
    3    -370.7179361854      1.23E+00  Gap = 0.00 eV  Line search: understep
 
   ------------------- Entering Geometric Direct Minimization ------------------
   GDM::trust : actual energy change is        -6.96770290789357     
   GDM::trust : predicted energy change was   -0.136769339338539     
   GDM::trust : updated trust radius is        0.330000000000000     
   GDM:         diagonal hessian shift is      0.000000000000000E+000
   GDM::PreWSS: input subspace size is                  3
   GDM::PreWSS: working subspace size set to            3
   GDM::PrEWSS: # of linearly dependent vectors =            0
   GDM::PrEWSS: Max dev from orthonormality =   7.768091725424142E-015
   GDM::BFGS:   lowest Hinv e-value    0.191379642647134     
   GDM::BFGS:   highest Hinv e-value    3.03236227590974     
   GDM::      : max scaling in EWCs is          2.82842712474619     
   GDM::      : max rotation in step is       -0.259587362364105     
   GDM::        grad.step =   -2.04213792871581     
   ------- Leaving GDM -- hopefully with a step in the right direction! --------
 
    4    -373.9116900595      1.82E+00  Gap = 0.00 eV  Descent step
 
   ------------------- Entering Geometric Direct Minimization ------------------
   GDM::trust : actual energy change is        -3.73346070550514     
   GDM::trust : predicted energy change was   -0.326145541254811     
   GDM::trust : updated trust radius is        0.330000000000000     
   GDM:         diagonal hessian shift is      0.000000000000000E+000
   GDM::PreWSS: input subspace size is                  4
   GDM::PreWSS: working subspace size set to            4
   GDM::PrEWSS: # of linearly dependent vectors =            0
   GDM::PrEWSS: Max dev from orthonormality =   8.187894806610529E-015
   GDM::BFGS:   lowest Hinv e-value    0.457568676238327     
   GDM::BFGS:   highest Hinv e-value    2.43220783247204     
   GDM::      : max scaling in EWCs is          2.82842712474619     
   GDM::      : max rotation in step is        0.226000422943657     
   GDM::        grad.step =   -1.13186684830985     
   ------- Leaving GDM -- hopefully with a step in the right direction! --------
 
    5    -377.6451507650      9.55E-01  Gap = 0.00 eV  Descent step
 
   ------------------- Entering Geometric Direct Minimization ------------------
   GDM::trust : actual energy change is        -2.11909241993624     
   GDM::trust : predicted energy change was   -0.179254402279499     
   GDM::trust : updated trust radius is        0.330000000000000     
   GDM:         diagonal hessian shift is      0.000000000000000E+000
   GDM::PreWSS: input subspace size is                  5
   GDM::PreWSS: working subspace size set to            5
   GDM::PrEWSS: # of linearly dependent vectors =            0
   GDM::PrEWSS: Max dev from orthonormality =   2.875824578474351E-014
   GDM::BFGS:   lowest Hinv e-value    0.368104147651706     
   GDM::BFGS:   highest Hinv e-value    2.62590750835634     
   GDM::      : max scaling in EWCs is          2.82842712474619     
   GDM::      : max rotation in step is        0.140625618441448     
   GDM::        grad.step =  -0.859529824058332     
   ------- Leaving GDM -- hopefully with a step in the right direction! --------
 
    6    -379.7642431849      6.42E-01  Gap = 0.00 eV  Descent step
 
   ------------------- Entering Geometric Direct Minimization ------------------
   GDM::trust : actual energy change is        -1.63684942589697     
   GDM::trust : predicted energy change was   -0.148742246063481     
   GDM::trust : updated trust radius is        0.330000000000000     
   GDM:         diagonal hessian shift is      0.000000000000000E+000
   GDM::PreWSS: input subspace size is                  6
   GDM::PreWSS: working subspace size set to            6
   GDM::PrEWSS: # of linearly dependent vectors =            0
   GDM::PrEWSS: Max dev from orthonormality =   8.779088567223425E-014
   GDM::BFGS:   lowest Hinv e-value    0.330151300964671     
   GDM::BFGS:   highest Hinv e-value    3.77890897338184     
   GDM::      : max scaling in EWCs is          2.82842712474619     
   GDM::      : max rotation in step is        0.163516473178160     
   GDM::        grad.step =  -0.740887129081848     
   ------- Leaving GDM -- hopefully with a step in the right direction! --------
 
    7    -381.4010926108      5.12E-01  Gap = 0.00 eV  Descent step
 
   ------------------- Entering Geometric Direct Minimization ------------------
   GDM::trust : actual energy change is        -1.41655211143973     
   GDM::trust : predicted energy change was   -0.132204225720358     
   GDM::trust : updated trust radius is        0.330000000000000     
   GDM:         diagonal hessian shift is      0.000000000000000E+000
   GDM::PreWSS: input subspace size is                  7
   GDM::PreWSS: working subspace size set to            7
   GDM::PrEWSS: # of linearly dependent vectors =            0
   GDM::PrEWSS: Max dev from orthonormality =   1.018265333163626E-013
   GDM::BFGS:   lowest Hinv e-value    0.292948031183460     
   GDM::BFGS:   highest Hinv e-value    3.65327629753277     
   GDM::      : max scaling in EWCs is          2.82842712474619     
   GDM::      : max rotation in step is        0.246033141498125     
   GDM::        grad.step =  -0.724953525512628     
   ------- Leaving GDM -- hopefully with a step in the right direction! --------
 
    8    -382.8176447223      7.11E-01  Gap = 0.00 eV  Descent step
 
   ------------------- Entering Geometric Direct Minimization ------------------
   GDM::trust : actual energy change is        -1.40095871359904     
   GDM::trust : predicted energy change was   -0.130106435623681     
   GDM::trust : updated trust radius is        0.330000000000000     
   GDM:         diagonal hessian shift is      0.000000000000000E+000
   GDM::PreWSS: input subspace size is                  8
   GDM::PreWSS: working subspace size set to            8
   GDM::PrEWSS: # of linearly dependent vectors =            0
   GDM::PrEWSS: Max dev from orthonormality =   1.912775493551067E-013
   GDM::BFGS:   lowest Hinv e-value    0.216416903454049     
   GDM::BFGS:   highest Hinv e-value    4.01261011774177     
   GDM::      : max scaling in EWCs is          2.82842712474619     
   GDM::      : max rotation in step is       -0.191659740712433     
   GDM::        grad.step =  -0.757464038342393     
   ------- Leaving GDM -- hopefully with a step in the right direction! --------
 
    9    -384.2186034359      6.23E-01  Gap = 0.00 eV  Descent step
 
   ------------------- Entering Geometric Direct Minimization ------------------
   GDM::trust : actual energy change is        -1.41653434095741     
   GDM::trust : predicted energy change was   -0.149481027562455     
   GDM::trust : updated trust radius is        0.330000000000000     
   GDM:         diagonal hessian shift is      0.000000000000000E+000
   GDM::PreWSS: input subspace size is                  9
   GDM::PreWSS: working subspace size set to            9
   GDM::PrEWSS: # of linearly dependent vectors =            0
   GDM::PrEWSS: Max dev from orthonormality =   5.609956943430916E-013
   GDM::BFGS:   lowest Hinv e-value    0.204871743624182     
   GDM::BFGS:   highest Hinv e-value    3.89536146397298     
   GDM::      : max scaling in EWCs is          2.82842712474619     
   GDM::      : max rotation in step is        0.304343431890477     
   GDM::        grad.step =  -0.706877794649772     
   ------- Leaving GDM -- hopefully with a step in the right direction! --------
 
   10    -385.6351377768      8.36E-01  Gap = 0.00 eV  Descent step
 
   ------------------- Entering Geometric Direct Minimization ------------------
   GDM::trust : actual energy change is        -1.25442348373912     
   GDM::trust : predicted energy change was   -0.159041441547573     
   GDM::trust : updated trust radius is        0.330000000000000     
   GDM:         diagonal hessian shift is      0.000000000000000E+000
   GDM::PreWSS: input subspace size is                 10
   GDM::PreWSS: working subspace size set to           10
   GDM::PrEWSS: # of linearly dependent vectors =            0
   GDM::PrEWSS: Max dev from orthonormality =   4.997668945350142E-013
   GDM::BFGS:   lowest Hinv e-value    0.250739602931851     
   GDM::BFGS:   highest Hinv e-value    4.08648747914602     
   GDM::      : max scaling in EWCs is          2.82842712474619     
   GDM::      : max rotation in step is       -0.354793286054137     
   GDM::        grad.step =  -0.496811816338282     
   ------- Leaving GDM -- hopefully with a step in the right direction! --------
 
   11    -386.8895612606      5.72E-01  Gap = 0.00 eV  Descent step
 
   ------------------- Entering Geometric Direct Minimization ------------------
   GDM::trust : actual energy change is       -0.882811677152347     
   GDM::trust : predicted energy change was   -0.145973340593295     
   GDM::trust : updated trust radius is        0.330000000000000     
   GDM:         diagonal hessian shift is      0.000000000000000E+000
   GDM::PreWSS: input subspace size is                 11
   GDM::PreWSS: working subspace size set to           11
   GDM::PrEWSS: # of linearly dependent vectors =            0
   GDM::PrEWSS: Max dev from orthonormality =   1.499078639000118E-013
   GDM::BFGS:   lowest Hinv e-value    0.254571633168604     
   GDM::BFGS:   highest Hinv e-value    4.85886904379816     
   GDM::      : max scaling in EWCs is          2.82842712474619     
   GDM::      : max rotation in step is        0.334094414452376     
   GDM::        grad.step =  -0.415305019496937     
   ------- Leaving GDM -- hopefully with a step in the right direction! --------
 
   12    -387.7723729377      4.50E-01  Gap = 0.00 eV  Descent step
 
   ------------------- Entering Geometric Direct Minimization ------------------
   GDM::trust : actual energy change is       -0.774756115623290     
   GDM::trust : predicted energy change was   -0.150665013935613     
   GDM::trust : updated trust radius is        0.330000000000000     
   GDM:         diagonal hessian shift is      0.000000000000000E+000
   GDM::PreWSS: input subspace size is                 12
   GDM::PreWSS: working subspace size set to           12
   GDM::PrEWSS: # of linearly dependent vectors =            0
   GDM::PrEWSS: Max dev from orthonormality =   2.313409880327910E-013
   GDM::BFGS:   lowest Hinv e-value    0.255966387745545     
   GDM::BFGS:   highest Hinv e-value    5.41126571520218     
   GDM::      : max scaling in EWCs is          2.82842712474619     
   GDM::      : max rotation in step is       -0.290353112823355     
   GDM::        grad.step =  -0.366380301255055     
   ------- Leaving GDM -- hopefully with a step in the right direction! --------
 
   13    -388.5471290534      3.94E-01  Gap = 0.00 eV  Descent step
 
   ------------------- Entering Geometric Direct Minimization ------------------
   GDM::trust : actual energy change is       -0.638090043021293     
   GDM::trust : predicted energy change was   -0.141718470838831     
   GDM::trust : updated trust radius is        0.330000000000000     
   GDM:         diagonal hessian shift is      0.000000000000000E+000
   GDM::PreWSS: input subspace size is                 13
   GDM::PreWSS: working subspace size set to           13
   GDM::PrEWSS: # of linearly dependent vectors =            0
   GDM::PrEWSS: Max dev from orthonormality =   5.863712293496803E-013
   GDM::BFGS:   lowest Hinv e-value    0.189826784364197     
   GDM::BFGS:   highest Hinv e-value    5.66976584103304     
   GDM::      : max scaling in EWCs is          2.82842712474619     
   GDM::      : max rotation in step is        0.188812390502624     
   GDM::        grad.step =  -0.309517000754127     
   ------- Leaving GDM -- hopefully with a step in the right direction! --------
 
   14    -389.1852190964      2.27E-01  Gap = 0.00 eV  Descent step
 
   ------------------- Entering Geometric Direct Minimization ------------------
   GDM::trust : actual energy change is       -0.552012301609977     
   GDM::trust : predicted energy change was   -0.168133244443031     
   GDM::trust : updated trust radius is        0.330000000000000     
   GDM:         diagonal hessian shift is      0.000000000000000E+000
   GDM::PreWSS: input subspace size is                 14
   GDM::PreWSS: working subspace size set to           14
   GDM::PrEWSS: # of linearly dependent vectors =            0
   GDM::PrEWSS: Max dev from orthonormality =   2.363664819426958E-013
   GDM::BFGS:   lowest Hinv e-value    0.150943829236431     
   GDM::BFGS:   highest Hinv e-value    6.99721298220703     
   GDM::      : max scaling in EWCs is          2.82842712474619     
   GDM::      : max rotation in step is        0.395075871131219     
   GDM::        grad.step =  -0.331783677004062     
   ------- Leaving GDM -- hopefully with a step in the right direction! --------
 
   15    -389.7372313980      4.26E-01  Gap = 0.00 eV  Descent step
 
   ------------------- Entering Geometric Direct Minimization ------------------
   GDM::trust : actual energy change is       -0.136973627976374     
   GDM::trust : predicted energy change was   -0.175983065570640     
   GDM::trust : updated trust radius is        0.330000000000000     
   GDM:         diagonal hessian shift is      0.000000000000000E+000
   GDM::PreWSS: input subspace size is                 15
   GDM::PreWSS: working subspace size set to           15
   GDM::PrEWSS: # of linearly dependent vectors =            0
   GDM::PrEWSS: Max dev from orthonormality =   5.143455106271233E-013
   GDM::BFGS:   lowest Hinv e-value    6.284872687958264E-002
   GDM::BFGS:   highest Hinv e-value    11.0492108306912     
   GDM::      : max scaling in EWCs is          2.82842712474619     
   GDM::      : max rotation in step is        0.527754062436238     
   GDM::        grad.step =  -0.891484665525184     
   ------- Leaving GDM -- hopefully with a step in the right direction! --------
 
   16    -389.8742050260      1.74E+00  Gap = 0.00 eV  Descent step
 
   ------------------- Entering Geometric Direct Minimization ------------------
   GDM::trust : actual energy change is       -2.887911202685700E-002
   GDM::trust : predicted energy change was   -0.904113293238340     
   GDM::trust : updated trust radius is        0.330000000000000     
   GDM:         diagonal hessian shift is      0.000000000000000E+000
   GDM::PreWSS: input subspace size is                 16
   GDM::PreWSS: working subspace size set to           16
   GDM::PrEWSS: # of linearly dependent vectors =            0
   GDM::PrEWSS: Max dev from orthonormality =   4.136309350588618E-013
   GDM::BFGS:   lowest Hinv e-value    9.635202797626230E-002
   GDM::BFGS:   highest Hinv e-value    6.29688840312027     
   GDM::      : max scaling in EWCs is          2.82842712474619     
   GDM::      : max rotation in step is        0.351466933556399     
   GDM::        grad.step =  -0.664516605765184     
   ------- Leaving GDM -- hopefully with a step in the right direction! --------
 
   17    -389.9030841380      8.55E-01  Gap = 0.00 eV  Descent step
 
   ------------------- Entering Geometric Direct Minimization ------------------
   GDM::trust : actual energy change is       -0.426199457734413     
   GDM::trust : predicted energy change was   -0.583891531510070     
   GDM::trust : updated trust radius is        0.330000000000000     
   GDM:         diagonal hessian shift is      0.000000000000000E+000
   GDM::PreWSS: input subspace size is                 17
   GDM::PreWSS: working subspace size set to           17
   GDM::PrEWSS: # of linearly dependent vectors =            0
   GDM::PrEWSS: Max dev from orthonormality =   3.491582023507078E-013
   GDM::BFGS:   lowest Hinv e-value    0.109858999745912     
   GDM::BFGS:   highest Hinv e-value    9.59914633848072     
   GDM::      : max scaling in EWCs is          2.82842712474619     
   GDM::      : max rotation in step is       -0.229092690142597     
   GDM::        grad.step =  -0.480950517363985     
   ------- Leaving GDM -- hopefully with a step in the right direction! --------
 
   18    -390.3292835957      5.61E-01  Gap = 0.00 eV  Descent step
 
   ------------------- Entering Geometric Direct Minimization ------------------
   GDM::trust : actual energy change is       -0.525539103973188     
   GDM::trust : predicted energy change was   -0.384700275603150     
   GDM::trust : updated trust radius is        0.330000000000000     
   GDM:         diagonal hessian shift is      0.000000000000000E+000
   GDM::PreWSS: input subspace size is                 18
   GDM::PreWSS: working subspace size set to           18
   GDM::PrEWSS: # of linearly dependent vectors =            0
   GDM::PrEWSS: Max dev from orthonormality =   2.384412112199641E-013
   GDM::BFGS:   lowest Hinv e-value    5.212568925419531E-002
   GDM::BFGS:   highest Hinv e-value    7.54422519247286     
   GDM::      : max scaling in EWCs is          2.82842712474619     
   GDM::      : max rotation in step is       -0.372327543285339     
   GDM::        grad.step =  -0.614880613662965     
   ------- Leaving GDM -- hopefully with a step in the right direction! --------
 
   19    -390.8548226997      7.43E-01  Gap = 0.00 eV  Descent step
 
   ------------------- Entering Geometric Direct Minimization ------------------
   GDM::trust : actual energy change is        0.155562742394807     
   GDM::trust : predicted energy change was   -0.782625254381821     
   GDM::trust : updated trust radius is        0.108900000000000     
   GDM::search:  On step            1 .  The current bracket is:
       left   : x =  0.0000E+00, e =      -390.8548226997, g = -0.8058E+00
       current: x =  0.7631E+00, e =      -390.6992599573, g =  0.1187E+01
       right  : x =  0.1000E+04, e =      1000.0000000000, g =  0.1000E+04
       next   : x =  0.3045E+00
   GDM::      : max rotation in step is       -0.148574834540949     
   ------- Leaving GDM -- hopefully with a step in the right direction! --------
 
   20    -390.6992599573      2.29E-01  Gap = 0.00 eV  Line search: overstep
 
   ------------------- Entering Geometric Direct Minimization ------------------
   GDM::trust : actual energy change is       -0.309060961135287     
   GDM::trust : predicted energy change was   -0.782625254381821     
   GDM::trust : updated trust radius is        0.108900000000000     
   GDM:         diagonal hessian shift is      0.000000000000000E+000
   GDM::PreWSS: input subspace size is                 19
   GDM::PreWSS: working subspace size set to           18
   GDM::PrEWSS: # of linearly dependent vectors =            0
   GDM::PrEWSS: Max dev from orthonormality =   5.206408221214431E-013
   GDM::BFGS:   lowest Hinv e-value    0.123974298861203     
   GDM::BFGS:   highest Hinv e-value    10.0839826500410     
   GDM::      : max scaling in EWCs is          2.82842712474619     
   GDM::      : max rotation in step is        0.244783254019225     
   GDM::        grad.step =  -0.163597859966753     
   ------- Leaving GDM -- hopefully with a step in the right direction! --------
 
   21    -391.1638836608      1.19E+00  Gap = 0.00 eV  Descent step
 
   ------------------- Entering Geometric Direct Minimization ------------------
   GDM::trust : actual energy change is       -0.313100067744585     
   GDM::trust : predicted energy change was   -1.949858060100238E-002
   GDM::trust : updated trust radius is        0.330000000000000     
   GDM:         diagonal hessian shift is      0.000000000000000E+000
   GDM::PreWSS: input subspace size is                 19
   GDM::PreWSS: working subspace size set to           18
   GDM::PrEWSS: # of linearly dependent vectors =            0
   GDM::PrEWSS: Max dev from orthonormality =   2.208892790900308E-013
   GDM::BFGS:   lowest Hinv e-value    0.119265545414747     
   GDM::BFGS:   highest Hinv e-value    12.2818859775933     
   GDM::      : max scaling in EWCs is          2.82842712474619     
   GDM::      : max rotation in step is        0.222263478527693     
   GDM::        grad.step =  -0.345306506508797     
   ------- Leaving GDM -- hopefully with a step in the right direction! --------
 
   22    -391.4769837286      4.29E-01  Gap = 0.00 eV  Descent step
 
   ------------------- Entering Geometric Direct Minimization ------------------
   GDM::trust : actual energy change is       -0.551988528901916     
   GDM::trust : predicted energy change was   -0.148879850120833     
   GDM::trust : updated trust radius is        0.330000000000000     
   GDM:         diagonal hessian shift is      0.000000000000000E+000
   GDM::PreWSS: input subspace size is                 19
   GDM::PreWSS: working subspace size set to           18
   GDM::PrEWSS: # of linearly dependent vectors =            0
   GDM::PrEWSS: Max dev from orthonormality =   1.291813878090409E-013
   GDM::BFGS:   lowest Hinv e-value    0.100271799417372     
   GDM::BFGS:   highest Hinv e-value    14.3983660885919     
   GDM::      : max scaling in EWCs is          2.82842712474619     
   GDM::      : max rotation in step is        0.273735948161179     
   GDM::        grad.step =  -0.343417036500904     
   ------- Leaving GDM -- hopefully with a step in the right direction! --------
 
   23    -392.0289722575      4.24E-01  Gap = 0.00 eV  Descent step
 
   ------------------- Entering Geometric Direct Minimization ------------------
   GDM::trust : actual energy change is       -0.626642621755138     
   GDM::trust : predicted energy change was   -0.193829452084982     
   GDM::trust : updated trust radius is        0.330000000000000     
   GDM:         diagonal hessian shift is      0.000000000000000E+000
   GDM::PreWSS: input subspace size is                 19
   GDM::PreWSS: working subspace size set to           18
   GDM::PrEWSS: # of linearly dependent vectors =            0
   GDM::PrEWSS: Max dev from orthonormality =   4.022407407155981E-013
   GDM::BFGS:   lowest Hinv e-value    0.108050809883992     
   GDM::BFGS:   highest Hinv e-value    16.8231041804144     
   GDM::      : max scaling in EWCs is          2.82842712474619     
   GDM::      : max rotation in step is        0.418613617920969     
   GDM::        grad.step =  -0.361204885781211     
   ------- Leaving GDM -- hopefully with a step in the right direction! --------
 
   24    -392.6556148792      4.91E-01  Gap = 0.00 eV  Descent step
 
   ------------------- Entering Geometric Direct Minimization ------------------
   GDM::trust : actual energy change is       -0.479570987436148     
   GDM::trust : predicted energy change was   -0.208903107824081     
   GDM::trust : updated trust radius is        0.330000000000000     
   GDM:         diagonal hessian shift is      0.000000000000000E+000
   GDM::PreWSS: input subspace size is                 19
   GDM::PreWSS: working subspace size set to           18
   GDM::PrEWSS: # of linearly dependent vectors =            0
   GDM::PrEWSS: Max dev from orthonormality =   1.624256285026604E-013
   GDM::BFGS:   lowest Hinv e-value    0.120349907983690     
   GDM::BFGS:   highest Hinv e-value    15.8615835432607     
   GDM::      : max scaling in EWCs is          2.82842712474619     
   GDM::      : max rotation in step is        0.569390063180546     
   GDM::        grad.step =  -0.273347828049285     
   ------- Leaving GDM -- hopefully with a step in the right direction! --------
 
   25    -393.1351858667      5.05E-01  Gap = 0.00 eV  Descent step
 
   ------------------- Entering Geometric Direct Minimization ------------------
   GDM::trust : actual energy change is        0.261174783564798     
   GDM::trust : predicted energy change was   -0.280720933693302     
   GDM::trust : updated trust radius is        0.108900000000000     
   GDM::search:  On step            1 .  The current bracket is:
       left   : x =  0.0000E+00, e =      -393.1351858667, g = -0.3663E+00
       current: x =  0.7463E+00, e =      -392.8740110831, g =  0.5447E+00
       right  : x =  0.1000E+04, e =      1000.0000000000, g =  0.1000E+04
       next   : x =  0.1908E+00
   GDM::      : max rotation in step is        0.145589291922807     
   ------- Leaving GDM -- hopefully with a step in the right direction! --------
 
   26    -392.8740110831      5.58E-02  Gap = 0.00 eV  Line search: overstep
 
   ------------------- Entering Geometric Direct Minimization ------------------
   GDM::trust : actual energy change is       -8.444775096256762E-002
   GDM::trust : predicted energy change was   -0.280720933693302     
   GDM::trust : updated trust radius is        0.108900000000000     
   GDM:         diagonal hessian shift is      0.000000000000000E+000
   GDM::PreWSS: input subspace size is                 19
   GDM::PreWSS: working subspace size set to           18
   GDM::PrEWSS: # of linearly dependent vectors =            0
   GDM::PrEWSS: Max dev from orthonormality =   9.345649254477451E-014
   GDM::BFGS:   lowest Hinv e-value    6.767155979124297E-002
   GDM::BFGS:   highest Hinv e-value    17.9213598169129     
   GDM::      : max scaling in EWCs is          2.82842712474619     
   GDM::      : max rotation in step is       -0.135557951915547     
   GDM::        grad.step =  -6.077051972719040E-002
   ------- Leaving GDM -- hopefully with a step in the right direction! --------
 
   27    -393.2196336176      2.51E-01  Gap = 94.77 eV  Descent step
 
   ------------------- Entering Geometric Direct Minimization ------------------
   GDM::trust : actual energy change is       -6.386547761087513E-002
   GDM::trust : predicted energy change was   -3.791436563383770E-002
   GDM::trust : updated trust radius is        0.330000000000000     
   GDM:         diagonal hessian shift is      0.000000000000000E+000
   GDM::PreWSS: input subspace size is                 19
   GDM::PreWSS: working subspace size set to           18
   GDM::PrEWSS: # of linearly dependent vectors =            0
   GDM::PrEWSS: Max dev from orthonormality =   5.793282520372145E-014
   GDM::BFGS:   lowest Hinv e-value    6.380408413443024E-002
   GDM::BFGS:   highest Hinv e-value    15.5475048123610     
   GDM::      : max scaling in EWCs is          2.82842712474619     
   GDM::      : max rotation in step is        0.690248213947219     
   GDM::        grad.step =  -0.215837450499350     
   ------- Leaving GDM -- hopefully with a step in the right direction! --------
 
   28    -393.2834990952      4.84E-01  Gap = 94.77 eV  Descent step
 
   ------------------- Entering Geometric Direct Minimization ------------------
   GDM::trust : actual energy change is        0.484419987448860     
   GDM::trust : predicted energy change was   -0.688575023396414     
   GDM::trust : updated trust radius is        0.108900000000000     
   GDM::search:  On step            1 .  The current bracket is:
       left   : x =  0.0000E+00, e =      -393.2834990952, g = -0.2686E+00
       current: x =  0.8036E+00, e =      -392.7990791078, g =  0.4884E+00
       right  : x =  0.1000E+04, e =      1000.0000000000, g =  0.1000E+04
       next   : x =  0.1239E+00
   GDM::      : max rotation in step is        0.106376174415670     
   ------- Leaving GDM -- hopefully with a step in the right direction! --------
 
   29    -392.7990791078      3.87E-02  Gap = 94.77 eV  Line search: overstep
 
   ------------------- Entering Geometric Direct Minimization ------------------
   GDM::trust : actual energy change is       -3.994341641038091E-002
   GDM::trust : predicted energy change was   -0.688575023396414     
   GDM::trust : updated trust radius is        0.108900000000000     
   GDM:         diagonal hessian shift is      0.000000000000000E+000
   GDM::PreWSS: input subspace size is                 19
   GDM::PreWSS: working subspace size set to           18
   GDM::PrEWSS: # of linearly dependent vectors =            0
   GDM::PrEWSS: Max dev from orthonormality =   1.474237398824130E-013
   GDM::BFGS:   lowest Hinv e-value    7.538806009941834E-002
   GDM::BFGS:   highest Hinv e-value    16.8866383980375     
   GDM::      : max scaling in EWCs is          2.82842712474619     
   GDM::      : max rotation in step is       -0.101852690272568     
   GDM::        grad.step =  -3.874594557517810E-002
   ------- Leaving GDM -- hopefully with a step in the right direction! --------
 
   30    -393.3234425117      1.26E-01  Gap = 94.77 eV  Descent step
 
   ------------------- Entering Geometric Direct Minimization ------------------
   GDM::trust : actual energy change is       -6.333765152419346E-002
   GDM::trust : predicted energy change was   -2.008069550416054E-002
   GDM::trust : updated trust radius is        0.330000000000000     
   GDM:         diagonal hessian shift is      0.000000000000000E+000
   GDM::PreWSS: input subspace size is                 19
   GDM::PreWSS: working subspace size set to           18
   GDM::PrEWSS: # of linearly dependent vectors =            0
   GDM::PrEWSS: Max dev from orthonormality =   8.272913604168153E-013
   GDM::BFGS:   lowest Hinv e-value    6.426421856237069E-002
   GDM::BFGS:   highest Hinv e-value    15.3718013229516     
   GDM::      : max scaling in EWCs is          2.82842712474619     
   GDM::      : max rotation in step is        0.513702568915275     
   GDM::        grad.step =  -0.124358110832923     
   ------- Leaving GDM -- hopefully with a step in the right direction! --------
 
   31    -393.3867801632      2.13E-01  Gap = 94.77 eV  Descent step
 
   ------------------- Entering Geometric Direct Minimization ------------------
   GDM::trust : actual energy change is        0.279668122870305     
   GDM::trust : predicted energy change was   -0.504976539774212     
   GDM::trust : updated trust radius is        0.108900000000000     
   GDM::search:  On step            1 .  The current bracket is:
       left   : x =  0.0000E+00, e =      -393.3867801632, g = -0.1702E+00
       current: x =  0.7307E+00, e =      -393.1071120403, g =  0.3423E+00
       right  : x =  0.1000E+04, e =      1000.0000000000, g =  0.1000E+04
       next   : x =  0.1124E+00
   GDM::      : max rotation in step is        7.905808543022397E-002
   ------- Leaving GDM -- hopefully with a step in the right direction! --------
 
   32    -393.1071120403      2.53E-02  Gap = 94.77 eV  Line search: overstep
 
   ------------------- Entering Geometric Direct Minimization ------------------
   GDM::trust : actual energy change is       -2.232790703982346E-002
   GDM::trust : predicted energy change was   -0.504976539774212     
   GDM::trust : updated trust radius is        0.108900000000000     
   GDM:         diagonal hessian shift is      0.000000000000000E+000
   GDM::PreWSS: input subspace size is                 19
   GDM::PreWSS: working subspace size set to           18
   GDM::PrEWSS: # of linearly dependent vectors =            0
   GDM::PrEWSS: Max dev from orthonormality =   9.294648384283732E-013
   GDM::BFGS:   lowest Hinv e-value    8.080347124747214E-002
   GDM::BFGS:   highest Hinv e-value    13.4817627611182     
   GDM::      : max scaling in EWCs is          2.82842712474619     
   GDM::      : max rotation in step is       -0.162700495818405     
   GDM::        grad.step =  -3.839727643825529E-002
   ------- Leaving GDM -- hopefully with a step in the right direction! --------
 
   33    -393.4091080702      2.11E-01  Gap = 94.77 eV  Descent step
 
   ------------------- Entering Geometric Direct Minimization ------------------
   GDM::trust : actual energy change is       -2.840510979700639E-002
   GDM::trust : predicted energy change was   -3.878171906476561E-002
   GDM::trust : updated trust radius is        0.330000000000000     
   GDM:         diagonal hessian shift is      0.000000000000000E+000
   GDM::PreWSS: input subspace size is                 19
   GDM::PreWSS: working subspace size set to           18
   GDM::PrEWSS: # of linearly dependent vectors =            0
   GDM::PrEWSS: Max dev from orthonormality =   7.242539901142209E-013
   GDM::BFGS:   lowest Hinv e-value    6.971100521024218E-002
   GDM::BFGS:   highest Hinv e-value    9.57717604088383     
   GDM::      : max scaling in EWCs is          2.82842712474619     
   GDM::      : max rotation in step is        0.761318737795504     
   GDM::        grad.step =  -0.209947505031809     
   ------- Leaving GDM -- hopefully with a step in the right direction! --------
 
   34    -393.4375131800      5.19E-01  Gap = 94.77 eV  Descent step
 
   ------------------- Entering Geometric Direct Minimization ------------------
   GDM::trust : actual energy change is        0.465162486079294     
   GDM::trust : predicted energy change was   -0.751964855334085     
   GDM::trust : updated trust radius is        0.108900000000000     
   GDM::search:  On step            1 .  The current bracket is:
       left   : x =  0.0000E+00, e =      -393.4375131800, g = -0.2542E+00
       current: x =  0.8258E+00, e =      -392.9723506939, g =  0.3416E+00
       right  : x =  0.1000E+04, e =      1000.0000000000, g =  0.1000E+04
       next   : x =  0.1284E+00
   GDM::      : max rotation in step is        0.118378465463880     
   ------- Leaving GDM -- hopefully with a step in the right direction! --------
 
   35    -392.9723506939      4.62E-02  Gap = 94.77 eV  Line search: overstep
 
   ------------------- Entering Geometric Direct Minimization ------------------
   GDM::trust : actual energy change is       -3.656832566127832E-002
   GDM::trust : predicted energy change was   -0.751964855334085     
   GDM::trust : updated trust radius is        0.108900000000000     
   GDM:         diagonal hessian shift is      0.000000000000000E+000
   GDM::PreWSS: input subspace size is                 19
   GDM::PreWSS: working subspace size set to           18
   GDM::PrEWSS: # of linearly dependent vectors =            0
   GDM::PrEWSS: Max dev from orthonormality =   1.706426666636673E-012
   GDM::BFGS:   lowest Hinv e-value    9.973157567242966E-002
   GDM::BFGS:   highest Hinv e-value    8.90093127954599     
   GDM::      : max scaling in EWCs is          2.82842712474619     
   GDM::      : max rotation in step is        0.242213891289097     
   GDM::        grad.step =  -3.444156193140212E-002
   ------- Leaving GDM -- hopefully with a step in the right direction! --------
 
   36    -393.4740815057      2.49E-01  Gap = 94.77 eV  Descent step
 
   ------------------- Entering Geometric Direct Minimization ------------------
   GDM::trust : actual energy change is       -4.743764151328378E-002
   GDM::trust : predicted energy change was   -1.504203121896395E-002
   GDM::trust : updated trust radius is        0.330000000000000     
   GDM:         diagonal hessian shift is      0.000000000000000E+000
   GDM::PreWSS: input subspace size is                 19
   GDM::PreWSS: working subspace size set to           18
   GDM::PrEWSS: # of linearly dependent vectors =            0
   GDM::PrEWSS: Max dev from orthonormality =   2.722141956290614E-012
   GDM::BFGS:   lowest Hinv e-value    8.585842317568687E-002
   GDM::BFGS:   highest Hinv e-value    9.60982073208229     
   GDM::trust : dogleg step length is          0.330000000000000     
   GDM::      : max scaling in EWCs is          2.82842712474619     
   GDM::      : max rotation in step is       -0.171707085729636     
   GDM::        grad.step =  -8.768259672966534E-002
   ------- Leaving GDM -- hopefully with a step in the right direction! --------
 
   37    -393.5215191472      6.95E-02  Gap = 94.77 eV  Dog-leg BFGS step
 
   ------------------- Entering Geometric Direct Minimization ------------------
   GDM::trust : actual energy change is        9.413280973819838E-002
   GDM::trust : predicted energy change was   -0.183223211034963     
   GDM::trust : updated trust radius is        0.108900000000000     
   GDM::search:  On step            1 .  The current bracket is:
       left   : x =  0.0000E+00, e =      -393.5215191472, g = -0.2179E+00
       current: x =  0.4024E+00, e =      -393.4273863374, g =  0.4456E+00
       right  : x =  0.1000E+04, e =      1000.0000000000, g =  0.1000E+04
       next   : x =  0.9702E-01
   GDM::      : max rotation in step is       -4.140387067890986E-002
   ------- Leaving GDM -- hopefully with a step in the right direction! --------
 
   38    -393.4273863374      3.47E-02  Gap = 94.77 eV  Line search: overstep
 
   ------------------- Entering Geometric Direct Minimization ------------------
   GDM::trust : actual energy change is       -2.652641998383842E-002
   GDM::trust : predicted energy change was   -0.183223211034963     
   GDM::trust : updated trust radius is        0.108900000000000     
   GDM:         diagonal hessian shift is      0.000000000000000E+000
   GDM::PreWSS: input subspace size is                 19
   GDM::PreWSS: working subspace size set to           18
   GDM::PrEWSS: # of linearly dependent vectors =            0
   GDM::PrEWSS: Max dev from orthonormality =   4.874892156614408E-012
   GDM::BFGS:   lowest Hinv e-value    0.105070538218409     
   GDM::BFGS:   highest Hinv e-value    8.15960334423357     
   GDM::      : max scaling in EWCs is          2.82842712474619     
   GDM::      : max rotation in step is        0.260429657652958     
   GDM::        grad.step =  -2.115100668227684E-002
   ------- Leaving GDM -- hopefully with a step in the right direction! --------
 
   39    -393.5480455672      1.64E-01  Gap = 94.77 eV  Descent step
 
   ------------------- Entering Geometric Direct Minimization ------------------
   GDM::trust : actual energy change is        1.711254528368045E-002
   GDM::trust : predicted energy change was   -3.362768743704868E-002
   GDM::trust : updated trust radius is        0.108900000000000     
   GDM::search:  On step            1 .  The current bracket is:
       left   : x =  0.0000E+00, e =      -393.5480455672, g = -0.7791E-01
       current: x =  0.2715E+00, e =      -393.5309330219, g =  0.1400E+00
       right  : x =  0.1000E+04, e =      1000.0000000000, g =  0.1000E+04
       next   : x =  0.7504E-01
   GDM::      : max rotation in step is        7.197906553711367E-002
   ------- Leaving GDM -- hopefully with a step in the right direction! --------
 
   40    -393.5309330219      4.33E-02  Gap = 0.00 eV  Line search: overstep
 
   ------------------- Entering Geometric Direct Minimization ------------------
   GDM::trust : actual energy change is       -7.341708561796167E-003
   GDM::trust : predicted energy change was   -3.362768743704868E-002
   GDM::trust : updated trust radius is        0.108900000000000     
   GDM:         diagonal hessian shift is      0.000000000000000E+000
   GDM::PreWSS: input subspace size is                 19
   GDM::PreWSS: working subspace size set to           18
   GDM::PrEWSS: # of linearly dependent vectors =            0
   GDM::PrEWSS: Max dev from orthonormality =   7.185987915825365E-012
   GDM::BFGS:   lowest Hinv e-value    8.741759432018331E-002
   GDM::BFGS:   highest Hinv e-value    8.78668266938712     
   GDM::      : max scaling in EWCs is          2.82842712474619     
   GDM::      : max rotation in step is       -5.935880000860201E-002
   GDM::        grad.step =  -1.608327232962251E-002
   ------- Leaving GDM -- hopefully with a step in the right direction! --------
 
   41    -393.5553872757      4.47E-02  Gap = 94.77 eV  Descent step
 
   ------------------- Entering Geometric Direct Minimization ------------------
   GDM::trust : actual energy change is        1.286673105124692E-002
   GDM::trust : predicted energy change was   -3.459276339073208E-002
   GDM::trust : updated trust radius is        0.108900000000000     
   GDM::search:  On step            1 .  The current bracket is:
       left   : x =  0.0000E+00, e =      -393.5553872757, g = -0.9684E-01
       current: x =  0.1661E+00, e =      -393.5425205447, g =  0.1784E+00
       right  : x =  0.1000E+04, e =      1000.0000000000, g =  0.1000E+04
       next   : x =  0.4613E-01
   GDM::      : max rotation in step is       -1.648849109165931E-002
   ------- Leaving GDM -- hopefully with a step in the right direction! --------
 
   42    -393.5425205447      7.55E-03  Gap = 94.77 eV  Line search: overstep
 
   ------------------- Entering Geometric Direct Minimization ------------------
   GDM::trust : actual energy change is       -5.547556605620230E-003
   GDM::trust : predicted energy change was   -3.459276339073208E-002
   GDM::trust : updated trust radius is        0.108900000000000     
   GDM:         diagonal hessian shift is      0.000000000000000E+000
   GDM::PreWSS: input subspace size is                 19
   GDM::PreWSS: working subspace size set to           18
   GDM::PrEWSS: # of linearly dependent vectors =            0
   GDM::PrEWSS: Max dev from orthonormality =   1.197261734198207E-011
   GDM::BFGS:   lowest Hinv e-value    9.331075729277649E-002
   GDM::BFGS:   highest Hinv e-value    8.34955490805938     
   GDM::      : max scaling in EWCs is          2.82842712474619     
   GDM::      : max rotation in step is        0.261022017759495     
   GDM::        grad.step =  -1.562633573905915E-002
   ------- Leaving GDM -- hopefully with a step in the right direction! --------
 
   43    -393.5609348323      1.22E-01  Gap = 94.77 eV  Descent step
 
   ------------------- Entering Geometric Direct Minimization ------------------
   GDM::trust : actual energy change is        3.323014133081870E-002
   GDM::trust : predicted energy change was   -4.455118728732785E-002
   GDM::trust : updated trust radius is        0.108900000000000     
   GDM::search:  On step            1 .  The current bracket is:
       left   : x =  0.0000E+00, e =      -393.5609348323, g = -0.5742E-01
       current: x =  0.2721E+00, e =      -393.5277046910, g =  0.1661E+00
       right  : x =  0.1000E+04, e =      1000.0000000000, g =  0.1000E+04
       next   : x =  0.4352E-01
   GDM::      : max rotation in step is        4.174285508718448E-002
   ------- Leaving GDM -- hopefully with a step in the right direction! --------
 
   44    -393.5277046910      4.03E-02  Gap = 94.77 eV  Line search: overstep
 
   ------------------- Entering Geometric Direct Minimization ------------------
   GDM::trust : actual energy change is       -3.293002518830690E-003
   GDM::trust : predicted energy change was   -4.455118728732785E-002
   GDM::trust : updated trust radius is        0.108900000000000     
   GDM:         diagonal hessian shift is      0.000000000000000E+000
   GDM::PreWSS: input subspace size is                 19
   GDM::PreWSS: working subspace size set to           18
   GDM::PrEWSS: # of linearly dependent vectors =            0
   GDM::PrEWSS: Max dev from orthonormality =   1.166416963016559E-011
   GDM::BFGS:   lowest Hinv e-value    9.026682372829176E-002
   GDM::BFGS:   highest Hinv e-value    8.81535776538038     
   GDM::trust : dogleg step length is          0.108900000000000     
   GDM::      : max scaling in EWCs is          2.82842712474619     
   GDM::      : max rotation in step is       -6.335171678316895E-002
   GDM::        grad.step =  -1.038985367681062E-002
   ------- Leaving GDM -- hopefully with a step in the right direction! --------
 
   45    -393.5642278349      3.12E-02  Gap = 94.77 eV  Dog-leg BFGS step
 
   ------------------- Entering Geometric Direct Minimization ------------------
   GDM::trust : actual energy change is       -7.509474614664668E-003
   GDM::trust : predicted energy change was   -1.673155211433987E-002
   GDM::trust : updated trust radius is        0.108900000000000     
   GDM:         diagonal hessian shift is      0.000000000000000E+000
   GDM::PreWSS: input subspace size is                 19
   GDM::PreWSS: working subspace size set to           18
   GDM::PrEWSS: # of linearly dependent vectors =            0
   GDM::PrEWSS: Max dev from orthonormality =   1.267353930134441E-011
   GDM::BFGS:   lowest Hinv e-value    9.489754566523584E-002
   GDM::BFGS:   highest Hinv e-value    8.29559361283405     
   GDM::      : max scaling in EWCs is          2.82842712474619     
   GDM::      : max rotation in step is        4.896115843645551E-002
   GDM::        grad.step =  -3.317435861092937E-003
   ------- Leaving GDM -- hopefully with a step in the right direction! --------
 
   46    -393.5717373095      1.51E-01  Gap = 94.77 eV  Normal BFGS step
 
   ------------------- Entering Geometric Direct Minimization ------------------
   GDM::trust : actual energy change is       -1.835268321087824E-003
   GDM::trust : predicted energy change was   -4.976153791639402E-003
   GDM::trust : updated trust radius is        0.330000000000000     
   GDM:         diagonal hessian shift is      0.000000000000000E+000
   GDM::PreWSS: input subspace size is                 19
   GDM::PreWSS: working subspace size set to           18
   GDM::PrEWSS: # of linearly dependent vectors =            0
   GDM::PrEWSS: Max dev from orthonormality =   8.536504836342829E-012
   GDM::BFGS:   lowest Hinv e-value    9.606676955749768E-002
   GDM::BFGS:   highest Hinv e-value    6.75102789664909     
   GDM::      : max scaling in EWCs is          2.82842712474619     
   GDM::      : max rotation in step is       -3.450540930462941E-002
   GDM::        grad.step =  -2.892217504430657E-003
   ------- Leaving GDM -- hopefully with a step in the right direction! --------
 
   47    -393.5735725778      1.48E-02  Gap = 94.77 eV  Normal BFGS step
 
   ------------------- Entering Geometric Direct Minimization ------------------
   GDM::trust : actual energy change is        7.372518672184469E-003
   GDM::trust : predicted energy change was   -4.338326256645983E-003
   GDM::trust : updated trust radius is        0.108900000000000     
   GDM::search:  On step            1 .  The current bracket is:
       left   : x =  0.0000E+00, e =      -393.5735725778, g = -0.2307E-01
       current: x =  0.1254E+00, e =      -393.5662000591, g =  0.8339E-01
       right  : x =  0.1000E+04, e =      1000.0000000000, g =  0.1000E+04
       next   : x =  0.1766E-01
   GDM::      : max rotation in step is       -4.861164820570309E-003
   ------- Leaving GDM -- hopefully with a step in the right direction! --------
 
   48    -393.5662000591      3.33E-03  Gap = 94.77 eV  Line search: overstep
 
   ------------------- Entering Geometric Direct Minimization ------------------
   GDM::trust : actual energy change is       -5.602392448054161E-004
   GDM::trust : predicted energy change was   -4.338326256645983E-003
   GDM::trust : updated trust radius is        0.108900000000000     
   GDM:         diagonal hessian shift is      0.000000000000000E+000
   GDM::PreWSS: input subspace size is                 19
   GDM::PreWSS: working subspace size set to           18
   GDM::PrEWSS: # of linearly dependent vectors =            0
   GDM::PrEWSS: Max dev from orthonormality =   1.458440312962495E-011
   GDM::BFGS:   lowest Hinv e-value    9.109707194954401E-002
   GDM::BFGS:   highest Hinv e-value    3.42153812844286     
   GDM::      : max scaling in EWCs is          2.82842712474619     
   GDM::      : max rotation in step is       -2.079818576790965E-002
   GDM::        grad.step =  -1.080414503821572E-003
   ------- Leaving GDM -- hopefully with a step in the right direction! --------
 
   49    -393.5741328170      1.52E-02  Gap = 94.77 eV  Normal BFGS step
 
   ------------------- Entering Geometric Direct Minimization ------------------
   GDM::trust : actual energy change is       -5.716956611649948E-004
   GDM::trust : predicted energy change was   -1.620621755732358E-003
   GDM::trust : updated trust radius is        0.330000000000000     
   GDM:         diagonal hessian shift is      0.000000000000000E+000
   GDM::PreWSS: input subspace size is                 19
   GDM::PreWSS: working subspace size set to           18
   GDM::PrEWSS: # of linearly dependent vectors =            0
   GDM::PrEWSS: Max dev from orthonormality =   1.755941572700870E-011
   GDM::BFGS:   lowest Hinv e-value    8.808018254455842E-002
   GDM::BFGS:   highest Hinv e-value    3.71527084223464     
   GDM::      : max scaling in EWCs is          2.82842712474619     
   GDM::      : max rotation in step is       -1.073837656781546E-002
   GDM::        grad.step =  -4.365323987431683E-004
   ------- Leaving GDM -- hopefully with a step in the right direction! --------
 
   50    -393.5747045127      1.07E-02  Gap = 94.77 eV  Normal BFGS step
 
   ------------------- Entering Geometric Direct Minimization ------------------
   GDM::trust : actual energy change is       -7.260723742774644E-005
   GDM::trust : predicted energy change was   -6.547985981147524E-004
   GDM::trust : updated trust radius is        0.330000000000000     
   GDM:         diagonal hessian shift is      0.000000000000000E+000
   GDM::PreWSS: input subspace size is                 19
   GDM::PreWSS: working subspace size set to           18
   GDM::PrEWSS: # of linearly dependent vectors =            0
   GDM::PrEWSS: Max dev from orthonormality =   3.237034945646755E-011
   GDM::BFGS:   lowest Hinv e-value    9.116974342089917E-002
   GDM::BFGS:   highest Hinv e-value    1.93867323260020     
   GDM::      : max scaling in EWCs is          2.82842712474619     
   GDM::      : max rotation in step is       -5.954953524573220E-003
   GDM::        grad.step =  -2.403642767043942E-004
   ------- Leaving GDM -- hopefully with a step in the right direction! --------
 
   51    -393.5747771199      8.88E-03  Gap = 94.77 eV  Normal BFGS step
 
   ------------------- Entering Geometric Direct Minimization ------------------
   GDM::trust : actual energy change is       -2.312813848561746E-004
   GDM::trust : predicted energy change was   -3.605464150565914E-004
   GDM::trust : updated trust radius is        0.330000000000000     
   GDM:         diagonal hessian shift is      0.000000000000000E+000
   GDM::PreWSS: input subspace size is                 19
   GDM::PreWSS: working subspace size set to           18
   GDM::PrEWSS: # of linearly dependent vectors =            0
   GDM::PrEWSS: Max dev from orthonormality =   3.212458077328506E-011
   GDM::BFGS:   lowest Hinv e-value    9.046109483489104E-002
   GDM::BFGS:   highest Hinv e-value    2.01706740520971     
   GDM::      : max scaling in EWCs is          2.82842712474619     
   GDM::      : max rotation in step is       -3.287900134097941E-003
   GDM::        grad.step =  -1.438868259649926E-005
   ------- Leaving GDM -- hopefully with a step in the right direction! --------
 
   52    -393.5750084013      2.03E-03  Gap = 94.77 eV  Normal BFGS step
 
   ------------------- Entering Geometric Direct Minimization ------------------
   GDM::trust : actual energy change is       -5.864785237008618E-006
   GDM::trust : predicted energy change was   -2.158302389474889E-005
   GDM::trust : updated trust radius is        0.330000000000000     
   GDM:         diagonal hessian shift is      0.000000000000000E+000
   GDM::PreWSS: input subspace size is                 19
   GDM::PreWSS: working subspace size set to           18
   GDM::PrEWSS: # of linearly dependent vectors =            0
   GDM::PrEWSS: Max dev from orthonormality =   9.523434818525800E-011
   GDM::BFGS:   lowest Hinv e-value    8.741519456498871E-002
   GDM::BFGS:   highest Hinv e-value    1.82672246286317     
   GDM::      : max scaling in EWCs is          2.82842712474619     
   GDM::      : max rotation in step is       -2.023616609343385E-003
   GDM::        grad.step =  -5.527671779283409E-006
   ------- Leaving GDM -- hopefully with a step in the right direction! --------
 
   53    -393.5750142661      1.99E-03  Gap = 0.00 eV  Normal BFGS step
 
   ------------------- Entering Geometric Direct Minimization ------------------
   GDM::trust : actual energy change is       -4.509180712375382E-006
   GDM::trust : predicted energy change was   -8.291507668925115E-006
   GDM::trust : updated trust radius is        0.330000000000000     
   GDM:         diagonal hessian shift is      0.000000000000000E+000
   GDM::PreWSS: input subspace size is                 19
   GDM::PreWSS: working subspace size set to           18
   GDM::PrEWSS: # of linearly dependent vectors =            0
   GDM::PrEWSS: Max dev from orthonormality =   3.219126978870612E-010
   GDM::BFGS:   lowest Hinv e-value    9.136672774758238E-002
   GDM::BFGS:   highest Hinv e-value    3.32147357517419     
   GDM::      : max scaling in EWCs is          2.82842712474619     
   GDM::      : max rotation in step is        7.079407430194006E-004
   GDM::        grad.step =  -1.883251537923474E-006
   ------- Leaving GDM -- hopefully with a step in the right direction! --------
 
   54    -393.5750187753      1.15E-03  Gap = 94.77 eV  Normal BFGS step
 
   ------------------- Entering Geometric Direct Minimization ------------------
   GDM::trust : actual energy change is       -5.103369744574593E-007
   GDM::trust : predicted energy change was   -2.824877306885212E-006
   GDM::trust : updated trust radius is        0.330000000000000     
   GDM:         diagonal hessian shift is      0.000000000000000E+000
   GDM::PreWSS: input subspace size is                 19
   GDM::PreWSS: working subspace size set to           18
   GDM::PrEWSS: # of linearly dependent vectors =            0
   GDM::PrEWSS: Max dev from orthonormality =   3.557533868187024E-011
   GDM::BFGS:   lowest Hinv e-value    9.085103038792501E-002
   GDM::BFGS:   highest Hinv e-value    1.70901553828728     
   GDM::      : max scaling in EWCs is          2.82842712474619     
   GDM::      : max rotation in step is        5.222049488168326E-004
   GDM::        grad.step =  -9.011938334262185E-007
   ------- Leaving GDM -- hopefully with a step in the right direction! --------
 
   55    -393.5750192856      4.75E-04  Gap = 94.77 eV  Normal BFGS step
 
   ------------------- Entering Geometric Direct Minimization ------------------
   GDM::trust : actual energy change is       -8.747396691433096E-007
   GDM::trust : predicted energy change was   -1.351790750139328E-006
   GDM::trust : updated trust radius is        0.330000000000000     
   GDM:         diagonal hessian shift is      0.000000000000000E+000
   GDM::PreWSS: input subspace size is                 19
   GDM::PreWSS: working subspace size set to           18
   GDM::PrEWSS: # of linearly dependent vectors =            0
   GDM::PrEWSS: Max dev from orthonormality =   4.869464553802771E-011
   GDM::BFGS:   lowest Hinv e-value    9.094859227350735E-002
   GDM::BFGS:   highest Hinv e-value    1.62284649460926     
   GDM::      : max scaling in EWCs is          2.82842712474619     
   GDM::      : max rotation in step is        3.140795959072764E-004
   GDM::        grad.step =  -1.143189008907217E-007
   ------- Leaving GDM -- hopefully with a step in the right direction! --------
 
   56    -393.5750201604      2.40E-04  Gap = 94.77 eV  Normal BFGS step
 
   ------------------- Entering Geometric Direct Minimization ------------------
   GDM::trust : actual energy change is       -7.391435019599157E-008
   GDM::trust : predicted energy change was   -1.714783513360826E-007
   GDM::trust : updated trust radius is        0.330000000000000     
   GDM:         diagonal hessian shift is      0.000000000000000E+000
   GDM::PreWSS: input subspace size is                 19
   GDM::PreWSS: working subspace size set to           18
   GDM::PrEWSS: # of linearly dependent vectors =            0
   GDM::PrEWSS: Max dev from orthonormality =   6.727949447560277E-011
   GDM::BFGS:   lowest Hinv e-value    9.018057745787496E-002
   GDM::BFGS:   highest Hinv e-value    1.64662740956656     
   GDM::      : max scaling in EWCs is          2.82842712474619     
   GDM::      : max rotation in step is        2.538949307698607E-004
   GDM::        grad.step =  -3.369658198605716E-008
   ------- Leaving GDM -- hopefully with a step in the right direction! --------
 
   57    -393.5750202343      1.27E-04  Gap = 94.77 eV  Normal BFGS step
 
   ------------------- Entering Geometric Direct Minimization ------------------
   GDM::trust : actual energy change is       -3.835975803667679E-008
   GDM::trust : predicted energy change was   -5.054487297908573E-008
   GDM::trust : updated trust radius is        0.330000000000000     
   GDM:         diagonal hessian shift is      0.000000000000000E+000
   GDM::PreWSS: input subspace size is                 19
   GDM::PreWSS: working subspace size set to           18
   GDM::PrEWSS: # of linearly dependent vectors =            0
   GDM::PrEWSS: Max dev from orthonormality =   9.975530124162191E-011
   GDM::BFGS:   lowest Hinv e-value    9.029811877320430E-002
   GDM::BFGS:   highest Hinv e-value    2.22510524083617     
   GDM::      : max scaling in EWCs is          2.82842712474619     
   GDM::      : max rotation in step is        1.354177945547224E-004
   GDM::        grad.step =  -7.997251674602124E-009
   ------- Leaving GDM -- hopefully with a step in the right direction! --------
 
   58    -393.5750202726      4.22E-05  Gap = 94.77 eV  Normal BFGS step
 
   ------------------- Entering Geometric Direct Minimization ------------------
   GDM::trust : actual energy change is        8.963638720160816E-010
   GDM::trust : predicted energy change was   -1.199587751190319E-008
   GDM::trust : updated trust radius is        0.108900000000000     
   GDM::search:  On step            1 .  The current bracket is:
       left   : x =  0.0000E+00, e =      -393.5750202726, g = -0.4412E-04
       current: x =  0.1813E-03, e =      -393.5750202717, g =  0.4906E-04
       right  : x =  0.1000E+04, e =      1000.0000000000, g =  0.1000E+04
       next   : x =  0.8149E-04
   GDM::      : max rotation in step is        6.088469748872152E-005
   ------- Leaving GDM -- hopefully with a step in the right direction! --------
 
   59    -393.5750202717      5.67E-06  Gap = 94.77 eV  Line search: overstep
 
   ------------------- Entering Geometric Direct Minimization ------------------
   GDM::trust : actual energy change is       -3.776847279368667E-009
   GDM::trust : predicted energy change was   -1.199587751190319E-008
   GDM::trust : updated trust radius is        0.108900000000000     
   GDM:         diagonal hessian shift is      0.000000000000000E+000
   GDM::PreWSS: input subspace size is                 19
   GDM::PreWSS: working subspace size set to           18
   GDM::PrEWSS: # of linearly dependent vectors =            0
   GDM::PrEWSS: Max dev from orthonormality =   1.306058247663167E-010
   GDM::BFGS:   lowest Hinv e-value    9.039912929418067E-002
   GDM::BFGS:   highest Hinv e-value    4.09211915695977     
   GDM::      : max scaling in EWCs is          2.82842712474619     
   GDM::      : max rotation in step is        3.512457162283096E-004
   GDM::        grad.step =  -7.900604883438715E-009
   ------- Leaving GDM -- hopefully with a step in the right direction! --------
 
   60    -393.5750202764      4.48E-05  Gap = 94.77 eV  Normal BFGS step
 
   ------------------- Entering Geometric Direct Minimization ------------------
   GDM::trust : actual energy change is       -3.921968527720310E-009
   GDM::trust : predicted energy change was   -1.185090732515807E-008
   GDM::trust : updated trust radius is        0.330000000000000     
   GDM:         diagonal hessian shift is      0.000000000000000E+000
   GDM::PreWSS: input subspace size is                 19
   GDM::PreWSS: working subspace size set to           18
   GDM::PrEWSS: # of linearly dependent vectors =            0
   GDM::PrEWSS: Max dev from orthonormality =   6.173736868952950E-011
   GDM::BFGS:   lowest Hinv e-value    8.897748293001438E-002
   GDM::BFGS:   highest Hinv e-value    3.84112403492047     
   GDM::      : max scaling in EWCs is          2.82842712474619     
   GDM::      : max rotation in step is       -2.841062527991318E-005
   GDM::        grad.step =  -3.177776823833699E-009
   ------- Leaving GDM -- hopefully with a step in the right direction! --------
 
   61    -393.5750202803      4.29E-05  Gap = 94.77 eV  Normal BFGS step
 
   ------------------- Entering Geometric Direct Minimization ------------------
   GDM::trust : actual energy change is       -3.014349658769788E-009
   GDM::trust : predicted energy change was   -4.766665235750549E-009
   GDM::trust : updated trust radius is        0.330000000000000     
   GDM:         diagonal hessian shift is      0.000000000000000E+000
   GDM::PreWSS: input subspace size is                 19
   GDM::PreWSS: working subspace size set to           18
   GDM::PrEWSS: # of linearly dependent vectors =            1
   GDM::PrEWSS: Max dev from orthonormality =   4.125204344784805E-011
   GDM::BFGS:   lowest Hinv e-value    9.123364458444180E-002
   GDM::BFGS:   highest Hinv e-value    4.00220359958543     
   GDM::      : max scaling in EWCs is          2.82842712474619     
   GDM::      : max rotation in step is        1.185755906608983E-004
   GDM::        grad.step =  -5.120456665816805E-009
   ------- Leaving GDM -- hopefully with a step in the right direction! --------
 
   62    -393.5750202834      5.98E-05  Gap = 94.77 eV  Normal BFGS step
 
   ------------------- Entering Geometric Direct Minimization ------------------
   GDM::trust : actual energy change is        2.033436885540141E-008
   GDM::trust : predicted energy change was   -7.680684998725204E-009
   GDM::trust : updated trust radius is        0.108900000000000     
   GDM::search:  On step            1 .  The current bracket is:
       left   : x =  0.0000E+00, e =      -393.5750202834, g = -0.2602E-04
       current: x =  0.1968E-03, e =      -393.5750202630, g =  0.1294E-03
       right  : x =  0.1000E+04, e =      1000.0000000000, g =  0.1000E+04
       next   : x =  0.1979E-04
   GDM::      : max rotation in step is        1.192624897579153E-005
   ------- Leaving GDM -- hopefully with a step in the right direction! --------
 
   63    -393.5750202630      2.94E-05  Gap = 94.77 eV  Line search: overstep
 
   ------------------- Entering Geometric Direct Minimization ------------------
   GDM::trust : actual energy change is       -7.215135156002361E-010
   GDM::trust : predicted energy change was   -7.680684998725204E-009
   GDM::trust : updated trust radius is        0.108900000000000     
   GDM:         diagonal hessian shift is      0.000000000000000E+000
   GDM::PreWSS: input subspace size is                 19
   GDM::PreWSS: working subspace size set to           18
   GDM::PrEWSS: # of linearly dependent vectors =            1
   GDM::PrEWSS: Max dev from orthonormality =   4.411591369990475E-010
   GDM::BFGS:   lowest Hinv e-value    9.100659216114437E-002
   GDM::BFGS:   highest Hinv e-value    3.74710102688361     
   GDM::      : max scaling in EWCs is          2.82842712474619     
   GDM::      : max rotation in step is       -5.619378638080336E-005
   GDM::        grad.step =  -1.113570336679479E-009
   ------- Leaving GDM -- hopefully with a step in the right direction! --------
 
   64    -393.5750202841      2.24E-05  Gap = 94.77 eV  Normal BFGS step
 
   ------------------- Entering Geometric Direct Minimization ------------------
   GDM::trust : actual energy change is       -3.186471531080315E-009
   GDM::trust : predicted energy change was   -1.670355505019218E-009
   GDM::trust : updated trust radius is        0.330000000000000     
   GDM::search:  On step            1 .  The current bracket is:
       left   : x =  0.0000E+00, e =      -393.5750202841, g = -0.1209E-04
       current: x =  0.9214E-04, e =      -393.5750202873, g = -0.2250E-04
       right  : x =  0.1000E+04, e =      1000.0000000000, g =  0.1000E+04
       next   : x =  0.9214E-03
   GDM::      : max rotation in step is       -5.619378638080335E-004
   ------- Leaving GDM -- hopefully with a step in the right direction! --------
 
   65    -393.5750202873      2.05E-06  Gap = 94.77 eV  Line search: understep
 
   ------------------- Entering Geometric Direct Minimization ------------------
   GDM::trust : actual energy change is       -1.181808215733327E-007
   GDM::trust : predicted energy change was   -1.670355505019218E-009
   GDM::trust : updated trust radius is        0.330000000000000     
   GDM::search:  On step            2 .  The current bracket is:
       left   : x =  0.9214E-04, e =      -393.5750202873, g = -0.2250E-04
       current: x =  0.9214E-03, e =      -393.5750204023, g = -0.1162E-03
       right  : x =  0.1000E+04, e =         0.0000000000, g =  0.0000E+00
       next   : x =  0.8385E-02
   GDM::      : max rotation in step is       -5.113634560653105E-003
   ------- Leaving GDM -- hopefully with a step in the right direction! --------
 
   66    -393.5750204023      3.00E-05  Gap = 94.77 eV  Line search: understep
 
   ------------------- Entering Geometric Direct Minimization ------------------
   GDM::trust : actual energy change is       -8.124069267978484E-006
   GDM::trust : predicted energy change was   -1.670355505019218E-009
   GDM::trust : updated trust radius is        0.330000000000000     
   GDM::search:  On step            3 .  The current bracket is:
       left   : x =  0.9214E-03, e =      -393.5750204023, g = -0.1162E-03
       current: x =  0.8385E-02, e =      -393.5750284081, g = -0.9553E-03
       right  : x =  0.1000E+04, e =         0.0000000000, g =  0.0000E+00
       next   : x =  0.7556E-01
   GDM::      : max rotation in step is       -4.607890483225874E-002
   ------- Leaving GDM -- hopefully with a step in the right direction! --------
 
   67    -393.5750284081      2.90E-04  Gap = 94.77 eV  Line search: understep
 
   ------------------- Entering Geometric Direct Minimization ------------------
   GDM::trust : actual energy change is       -6.253103576341346E-004
   GDM::trust : predicted energy change was   -1.670355505019218E-009
   GDM::trust : updated trust radius is        0.330000000000000     
   GDM::search:  On step            4 .  The current bracket is:
       left   : x =  0.8385E-02, e =      -393.5750284081, g = -0.9553E-03
       current: x =  0.7556E-01, e =      -393.5756455944, g = -0.8088E-02
       right  : x =  0.1000E+04, e =         0.0000000000, g =  0.0000E+00
       next   : x =  0.6801E+00
   GDM::      : max rotation in step is       -0.414766337276709     
   ------- Leaving GDM -- hopefully with a step in the right direction! --------
 
   68    -393.5756455944      2.58E-03  Gap = 94.77 eV  Line search: understep
 
   ------------------- Entering Geometric Direct Minimization ------------------
   GDM::trust : actual energy change is       -1.360256889654465E-002
   GDM::trust : predicted energy change was   -1.670355505019218E-009
   GDM::trust : updated trust radius is        0.330000000000000     
   GDM:         diagonal hessian shift is      0.000000000000000E+000
   GDM::PreWSS: input subspace size is                 19
   GDM::PreWSS: working subspace size set to           18
   GDM::PrEWSS: # of linearly dependent vectors =            0
   GDM::PrEWSS: Max dev from orthonormality =   4.715811074973431E-013
   GDM::BFGS:   lowest Hinv e-value    3.142312730945804E-002
[...]
   GDM::trust : predicted energy change was   -2.616526069802664E-009
   GDM::trust : updated trust radius is        0.108900000000000     
   GDM::search:  On step            1 .  The current bracket is:
       left   : x =  0.0000E+00, e =      -394.2522939747, g = -0.4793E-04
       current: x =  0.3640E-04, e =      -394.2522939741, g =  0.6356E-04
       right  : x =  0.1000E+04, e =      1000.0000000000, g =  0.1000E+04
       next   : x =  0.1373E-04
   GDM::      : max rotation in step is       -3.308527662113984E-006
   ------- Leaving GDM -- hopefully with a step in the right direction! --------
 
   10    -394.2522939741      3.25E-06  Gap = 0.00 eV  Line search: overstep
 
   ------------------- Entering Geometric Direct Minimization ------------------
   GDM::trust : actual energy change is       -7.386233846773393E-010
   GDM::trust : predicted energy change was   -2.616526069802664E-009
   GDM::trust : updated trust radius is        0.108900000000000     
   GDM:         diagonal hessian shift is      0.000000000000000E+000
   GDM::PreWSS: input subspace size is                  8
   GDM::PreWSS: working subspace size set to            8
   GDM::PrEWSS: # of linearly dependent vectors =            7
   GDM::PrEWSS: Max dev from orthonormality =   3.906597267899770E-015
   GDM::BFGS:   lowest Hinv e-value    0.217904205372372     
   GDM::BFGS:   highest Hinv e-value    1.22903433748562     
   GDM::      : max scaling in EWCs is          2.07802210755266     
   GDM::      : max rotation in step is        7.228620954688075E-006
   GDM::        grad.step =  -2.807438307968228E-010
   ------- Leaving GDM -- hopefully with a step in the right direction! --------
 
   11    -394.2522939754      7.49E-06  Gap = 0.00 eV  Normal BFGS step
 
   ------------------- Entering Geometric Direct Minimization ------------------
   GDM::trust : actual energy change is       -1.244870873051696E-010
   GDM::trust : predicted energy change was   -4.211157461952341E-010
   GDM::trust : updated trust radius is        0.330000000000000     
   GDM:         diagonal hessian shift is      0.000000000000000E+000
   GDM::PreWSS: input subspace size is                  9
   GDM::PreWSS: working subspace size set to            9
   GDM::PrEWSS: # of linearly dependent vectors =            8
   GDM::PrEWSS: Max dev from orthonormality =   2.374489493917054E-014
   GDM::BFGS:   lowest Hinv e-value    0.219701964873926     
   GDM::BFGS:   highest Hinv e-value    1.19288702700011     
   GDM::      : max scaling in EWCs is          2.07804471639889     
   GDM::      : max rotation in step is       -2.687027894246112E-006
   GDM::        grad.step =  -9.752185029870155E-011
   ------- Leaving GDM -- hopefully with a step in the right direction! --------
 
   12    -394.2522939755      4.76E-06  Gap = 0.00 eV  Normal BFGS step
 
   ------------------- Entering Geometric Direct Minimization ------------------
   GDM::trust : actual energy change is       -3.677769200294279E-011
   GDM::trust : predicted energy change was   -1.462827754480523E-010
   GDM::trust : updated trust radius is        0.330000000000000     
   GDM:         diagonal hessian shift is      0.000000000000000E+000
   GDM::PreWSS: input subspace size is                 10
   GDM::PreWSS: working subspace size set to           10
   GDM::PrEWSS: # of linearly dependent vectors =            9
   GDM::PrEWSS: Max dev from orthonormality =   1.001976279724204E-014
   GDM::BFGS:   lowest Hinv e-value    0.220739242830056     
   GDM::BFGS:   highest Hinv e-value    1.26255220126386     
   GDM::      : max scaling in EWCs is          2.07804328201893     
   GDM::      : max rotation in step is        1.848928954344896E-006
   GDM::        grad.step =  -5.834596239314378E-011
   ------- Leaving GDM -- hopefully with a step in the right direction! --------
 
   13    -394.2522939756      3.33E-06  Gap = 0.00 eV  Normal BFGS step
 
   ------------------- Entering Geometric Direct Minimization ------------------
   GDM::trust : actual energy change is       -6.821210263296962E-012
   GDM::trust : predicted energy change was   -8.751894358971566E-011
   GDM::trust : updated trust radius is        0.330000000000000     
   GDM:         diagonal hessian shift is      0.000000000000000E+000
   GDM::PreWSS: input subspace size is                 11
   GDM::PreWSS: working subspace size set to           11
   GDM::PrEWSS: # of linearly dependent vectors =           10
   GDM::PrEWSS: Max dev from orthonormality =   2.562117185078705E-013
   GDM::BFGS:   lowest Hinv e-value    0.220170160386434     
   GDM::BFGS:   highest Hinv e-value    1.19212107813013     
   GDM::      : max scaling in EWCs is          2.07804591936436     
   GDM::      : max rotation in step is        1.891329506114953E-006
   GDM::        grad.step =  -3.758259715325252E-011
   ------- Leaving GDM -- hopefully with a step in the right direction! --------
 
   14    -394.2522939756      2.42E-06  Gap = 0.00 eV  Normal BFGS step
 
   ------------------- Entering Geometric Direct Minimization ------------------
   GDM::trust : actual energy change is       -2.859223968698643E-011
   GDM::trust : predicted energy change was   -5.637389572987878E-011
   GDM::trust : updated trust radius is        0.330000000000000     
   GDM:         diagonal hessian shift is      0.000000000000000E+000
   GDM::PreWSS: input subspace size is                 12
   GDM::PreWSS: working subspace size set to           12
   GDM::PrEWSS: # of linearly dependent vectors =           11
   GDM::PrEWSS: Max dev from orthonormality =   1.620800715862458E-012
   GDM::BFGS:   lowest Hinv e-value    0.220982406615243     
   GDM::BFGS:   highest Hinv e-value    1.18727433154692     
   GDM::      : max scaling in EWCs is          2.07804070662846     
   GDM::      : max rotation in step is       -4.721638819637908E-007
   GDM::        grad.step =  -4.735496571910930E-012
   ------- Leaving GDM -- hopefully with a step in the right direction! --------
 
   15    -394.2522939756      7.98E-07  Gap = 0.00 eV  Normal BFGS step
 
   ------------------- Entering Geometric Direct Minimization ------------------
   GDM::trust : actual energy change is       -3.637978807091713E-012
   GDM::trust : predicted energy change was   -7.103244857866396E-012
   GDM::trust : updated trust radius is        0.330000000000000     
   GDM:         diagonal hessian shift is      0.000000000000000E+000
   GDM::PreWSS: input subspace size is                 13
   GDM::PreWSS: working subspace size set to           13
   GDM::PrEWSS: # of linearly dependent vectors =           12
   GDM::PrEWSS: Max dev from orthonormality =   1.244233882591317E-011
   GDM::BFGS:   lowest Hinv e-value    0.218087850115265     
   GDM::BFGS:   highest Hinv e-value    1.19029675249978     
   GDM::      : max scaling in EWCs is          2.07804321597308     
   GDM::      : max rotation in step is        1.336442952518888E-007
   GDM::        grad.step =  -5.541320009237044E-013
   ------- Leaving GDM -- hopefully with a step in the right direction! --------
 
   16    -394.2522939756      3.12E-07  Gap = 0.00 eV  Normal BFGS step
 
   ------------------- Entering Geometric Direct Minimization ------------------
   GDM::trust : actual energy change is       -3.979039320256561E-013
   GDM::trust : predicted energy change was   -8.311980013855564E-013
   GDM::trust : updated trust radius is        0.330000000000000     
   GDM:         diagonal hessian shift is      0.000000000000000E+000
   GDM::PreWSS: input subspace size is                 14
   GDM::PreWSS: working subspace size set to           14
   GDM::PrEWSS: # of linearly dependent vectors =           13
   GDM::PrEWSS: Max dev from orthonormality =   4.556782728926123E-011
   GDM::BFGS:   lowest Hinv e-value    0.218386485293348     
   GDM::BFGS:   highest Hinv e-value    1.18698910605034     
   GDM::      : max scaling in EWCs is          2.07804276938204     
   GDM::      : max rotation in step is        1.670354501296830E-008
   GDM::        grad.step =  -1.208430894581043E-014
   ------- Leaving GDM -- hopefully with a step in the right direction! --------
 
   17    -394.2522939756      2.92E-08  Gap = 0.00 eV  Normal BFGS step
 
   ------------------- Entering Geometric Direct Minimization ------------------
   GDM::trust : actual energy change is        5.115907697472721E-013
   GDM::trust : predicted energy change was   -1.812646341871565E-014
   GDM::trust : updated trust radius is        0.108900000000000     
   GDM::WARNING energy changes are now smaller than effective accuracy.
   GDM::        calculation will continue, but THRESH should be increased
   GDM::        or SCF_CONVERGENCE decreased.
   GDM::        effective_thresh =   2.800000000000000E-010
   GDM:         diagonal hessian shift is      0.000000000000000E+000
   GDM::PreWSS: input subspace size is                 15
   GDM::PreWSS: working subspace size set to           15
   GDM::PrEWSS: # of linearly dependent vectors =           14
   GDM::PrEWSS: Max dev from orthonormality =   7.394446166486546E-012
   GDM::BFGS:   lowest Hinv e-value    0.219002696045556     
   GDM::BFGS:   highest Hinv e-value    1.18062103279272     
   GDM::      : max scaling in EWCs is          2.07804268381858     
   GDM::      : max rotation in step is       -3.960876215585511E-009
   GDM::        grad.step =  -1.219160830080131E-015
   ------- Leaving GDM -- hopefully with a step in the right direction! --------
 
   18    -394.2522939756      7.81E-09 Convergence criterion met
 ---------------------------------------
 One-Electron    Energy = -1082.5716928413
 Total Coulomb   Energy =   477.9542105484
 Alpha Exchange  Energy =    -4.3469345922
 Beta  Exchange  Energy =    -4.3469345922
 DFT   Exchange  Energy =   -34.9029491433
 DFT Correlation Energy =    -2.4697811957
 Nuclear Repu.   Energy =   256.4317878405
 Nuclear Attr.   Energy = -1428.5507244433
 Kinetic         Energy =   345.9790316020
 SCF time:  CPU 88.80 s  wall 8.09 s
 SCF   energy in the final basis set = -394.2522939756
 Total energy in the final basis set = -394.2522939756
 
 --------------------------------------------------------------
 
                    Orbital Energies (a.u.)
 --------------------------------------------------------------
 
 Alpha MOs
 -- Occupied --
-19.156 -19.156 -19.120 -19.120  -2.087  -2.085  -1.311  -1.294
 -1.292  -1.291  -1.288  -1.283  -0.918  -0.907  -0.848  -0.837
 -0.396  -0.389  -0.377  -0.375  -0.355  -0.347  -0.320  -0.313
 -0.304  -0.294  -0.287  -0.275
 -- Virtual --
 -0.159  -0.127  -0.126  -0.088  -0.078  -0.043  -0.025  -0.024
 -0.024   0.003   0.008   0.011   0.028   0.030   0.037   0.060
  0.064   0.088   0.102   0.112   0.134   0.153   0.153   0.162
  0.181   0.193   0.194   0.200   0.205   0.207   0.207   0.227
  0.240   0.244   0.246   0.265   0.276   0.280   0.281   0.298
  0.305   0.315   0.395   0.396   0.400   0.492   0.492   0.679
  0.735   0.767   1.123   1.160   1.179   1.186   1.206   1.213
  1.221   1.248   1.259   1.283   1.291   1.313   1.648   1.653
  1.736   1.769   1.774   1.776   1.777   1.795   1.797   1.811
  1.816   1.830   1.835   1.844   1.844   1.845   1.878   1.885
  1.917   1.931   1.963   2.037   2.114   2.162  13.514  14.555
 --------------------------------------------------------------
 
          Ground-State Mulliken Net Atomic Charges

     Atom                 Charge (a.u.)
  ----------------------------------------
      1 Zr                    1.610621
      2 O                    -1.025118
      3 O                    -0.585311
      4 O                    -1.025317
      5 Zr                    1.611132
      6 O                    -0.586008
  ----------------------------------------
  Sum of atomic charges =     0.000000

 -----------------------------------------------------------------
                    Cartesian Multipole Moments
 -----------------------------------------------------------------
    Charge (ESU x 10^10)
                 0.0000
    Dipole Moment (Debye)
         X      -0.0282      Y       0.0000      Z       0.0170
       Tot       0.0330
    Quadrupole Moments (Debye-Ang)
        XX     -73.7335     XY       0.0000     YY     -53.8487
        XZ       4.9115     YZ       0.0000     ZZ    -101.9394
    Octopole Moments (Debye-Ang^2)
       XXX       0.0511    XXY       0.0000    XYY       0.0175
       YYY       0.0000    XXZ     -15.2158    XYZ       0.0000
       YYZ     -11.2612    XZZ       1.8387    YZZ       0.0000
       ZZZ     -64.0367
    Hexadecapole Moments (Debye-Ang^3)
      XXXX    -360.7031   XXXY       0.0000   XXYY     -64.6682
      XYYY       0.0000   YYYY     -58.9033   XXXZ     174.7404
      XXYZ       0.0000   XYYZ      52.5881   YYYZ       0.0000
      XXZZ    -340.1661   XYZZ       0.0000   YYZZ    -220.5089
      XZZZ     367.1966   YZZZ       0.0000   ZZZZ   -1972.1190
 -----------------------------------------------------------------
 Calculating analytic gradient of the SCF energy
 Gradient of SCF Energy
            1           2           3           4           5           6
    1  -0.0002626   0.0000482   0.0001931   0.0000704  -0.0000867   0.0000375
    2  -0.0000000  -0.0000000   0.0000000  -0.0000000   0.0000000  -0.0000000
    3   0.0001246   0.0001019  -0.0001868  -0.0001226   0.0001547  -0.0000718
 Max gradient component =       2.626E-04
 RMS gradient           =       1.124E-04
 Gradient time:  CPU 19.18 s  wall 2.31 s
 Geometry Optimization Parameters
   NAtoms,    NIC,     NZ,  NCons,   NDum,   NFix, NCnnct, MaxDiis
        6      25       0       0       0       0       0       0

 Cartesian Hessian Update
 Hessian Updated using BFGS Update


** GEOMETRY OPTIMIZATION IN CARTESIAN COORDINATES **
   Searching for a Minimum

   Optimization Cycle:  65

                       Coordinates (Angstroms)
     ATOM                X               Y               Z
      1  Zr       -0.5261856902    0.0000000000    1.6385295536
      2  O         1.2706306229    0.0000000000    0.7428724814
      3  O        -0.9778335602    0.0000000000    3.3836786926
      4  O        -1.2738801315    0.0000000000   -0.3254097803
      5  Zr        0.5235205005    0.0000000000   -1.2196345761
      6  O         0.9837482585    0.0000000000   -2.9633863713
   Point Group: c1    Number of degrees of freedom:    12


   Energy is   -394.252293976


 Translations and Rotations Projected Out of Hessian

  9 Hessian modes will be used to form the next step
  Hessian Eigenvalues:
     0.008015    0.070134    0.107514    0.262200    0.294219    0.469283
     0.873237    1.336226    1.621049

 Minimum Search - Taking Simple RFO Step
 Searching for Lamda that Minimizes Along All modes
 Value Taken    Lamda =   0.00000000
 Step Taken.  Stepsize is  0.002568

                             Maximum     Tolerance    Cnvgd?
         Gradient           0.000263      0.000300     YES
         Displacement       0.001646      0.001200      NO
         Energy change      0.000000      0.000001     YES


                       Distance Matrix (Angstroms)
             Zr(  1)   O (  2)   O (  3)   O (  4)   Zr(  5)
   O (  2)  2.007673
   O (  3)  1.802646  3.468350
   O (  4)  2.101453  2.759667  3.720884
   Zr(  5)  3.044829  2.099907  4.841958  2.007557
   O (  6)  4.843298  3.717345  6.643270  3.472147  1.803463
 
 Final energy is   -394.252293975593     


 ******************************
 **  OPTIMIZATION CONVERGED  **
 ******************************

                       Coordinates (Angstroms)
     ATOM                X               Y               Z
      1  Zr       -0.5261856902    0.0000000000    1.6385295536
      2  O         1.2706306229    0.0000000000    0.7428724814
      3  O        -0.9778335602    0.0000000000    3.3836786926
      4  O        -1.2738801315    0.0000000000   -0.3254097803
      5  Zr        0.5235205005    0.0000000000   -1.2196345761
      6  O         0.9837482585    0.0000000000   -2.9633863713

Z-matrix Print:
$molecule
0 1
Zr
O  1 1.803463
O  1 2.007557 2 131.235713
O  1 2.099907 2 144.373679 3 -180.000000 0
Zr 4 2.007673 1 95.653415 2 -180.000000 0
O  5 1.802646 4 131.004725 1 -180.000000 0
$end

 
 --------------------------------------------------------------
 
                    Orbital Energies (a.u.)
 --------------------------------------------------------------
 
 Alpha MOs
 -- Occupied --
-19.156 -19.156 -19.120 -19.120  -2.087  -2.085  -1.311  -1.294
 -1.292  -1.291  -1.288  -1.283  -0.918  -0.907  -0.848  -0.837
 -0.396  -0.389  -0.377  -0.375  -0.355  -0.347  -0.320  -0.313
 -0.304  -0.294  -0.287  -0.275
 -- Virtual --
 -0.159  -0.127  -0.126  -0.088  -0.078  -0.043  -0.025  -0.024
 -0.024   0.003   0.008   0.011   0.028   0.030   0.037   0.060
  0.064   0.088   0.102   0.112   0.134   0.153   0.153   0.162
  0.181   0.193   0.194   0.200   0.205   0.207   0.207   0.227
  0.240   0.244   0.246   0.265   0.276   0.280   0.281   0.298
  0.305   0.315   0.395   0.396   0.400   0.492   0.492   0.679
  0.735   0.767   1.123   1.160   1.179   1.186   1.206   1.213
  1.221   1.248   1.259   1.283   1.291   1.313   1.648   1.653
  1.736   1.769   1.774   1.776   1.777   1.795   1.797   1.811
  1.816   1.830   1.835   1.844   1.844   1.845   1.878   1.885
  1.917   1.931   1.963   2.037   2.114   2.162  13.514  14.555
 --------------------------------------------------------------
 
          Ground-State Mulliken Net Atomic Charges

     Atom                 Charge (a.u.)
  ----------------------------------------
      1 Zr                    1.610621
      2 O                    -1.025118
      3 O                    -0.585311
      4 O                    -1.025317
      5 Zr                    1.611132
      6 O                    -0.586008
  ----------------------------------------
  Sum of atomic charges =     0.000000

 -----------------------------------------------------------------
                    Cartesian Multipole Moments
 -----------------------------------------------------------------
    Charge (ESU x 10^10)
                 0.0000
    Dipole Moment (Debye)
         X      -0.0282      Y       0.0000      Z       0.0170
       Tot       0.0330
    Quadrupole Moments (Debye-Ang)
        XX     -73.7335     XY       0.0000     YY     -53.8487
        XZ       4.9115     YZ       0.0000     ZZ    -101.9394
    Octopole Moments (Debye-Ang^2)
       XXX       0.0511    XXY       0.0000    XYY       0.0175
       YYY       0.0000    XXZ     -15.2158    XYZ       0.0000
       YYZ     -11.2612    XZZ       1.8387    YZZ       0.0000
       ZZZ     -64.0367
    Hexadecapole Moments (Debye-Ang^3)
      XXXX    -360.7031   XXXY       0.0000   XXYY     -64.6682
      XYYY       0.0000   YYYY     -58.9033   XXXZ     174.7404
      XXYZ       0.0000   XYYZ      52.5881   YYYZ       0.0000
      XXZZ    -340.1661   XYZZ       0.0000   YYZZ    -220.5089
      XZZZ     367.1966   YZZZ       0.0000   ZZZZ   -1972.1190
 -----------------------------------------------------------------
Archival summary:
1\1\hpc0488\OPT\ProcedureUnspecified\BasisUnspecified\r24(+,1)\liqiuy\FriJan1720:18:012020FriJan1720:18:012020\0\\#,OPT,ProcedureUnspecified,BasisUnspecified,\\56,1\Zr\O,1,1.80346\O,1,2.00756,2,131.236\O,1,2.09991,2,144.374,3,-180,0\Zr,4,2.00767,1,95.6534,2,-180,0\O,5,1.80265,4,131.005,1,-180,0\\\@

 Total job time:  943.80s(wall), 8631.47s(cpu) 
 Fri Jan 17 20:18:01 2020

        *************************************************************
        *                                                           *
        *  Thank you very much for using Q-Chem.  Have a nice day.  *
        *                                                           *
        *************************************************************


0 sent ACK to 0 
now end server 0 ... 
cleanup process ... done
