
Running Job 1 of 2 ZrOx.in
qchem ZrOx.in_30323.0 /tmp/5732853.priya/ZrOx.save/ 1
/usr/usc/qchem/4.4/bin/mpi/mpirun_qchem -machinefile /usr/usc/qchem/4.4/bin/mpi/machines -np 1 /usr/usc/qchem/4.4/exe/qcprog.exe ZrOx.in_30323.0 /tmp/5732853.priya/ZrOx.save/

Process 0 of 1 is on hpc3919.hpcc.usc.edu - thread support 0
initial socket setup ...start
initial socket setup ...done 
now start server 0 ... 
Check license passed

                  Welcome to Q-Chem
     A Quantum Leap Into The Future Of Chemistry


 Q-Chem 4.4, Q-Chem, Inc., Pleasanton, CA (2016)

 Y. Shao,  Z. Gan,  E. Epifanovsky,  A. T. B. Gilbert,  M. Wormit,  
 J. Kussmann,  A. W. Lange,  A. Behn,  J. Deng,  X. Feng,  D. Ghosh,  
 M. Goldey,  P. R. Horn,  L. D. Jacobson,  I. Kaliman,  F.Rob,  
 R. Z. Khaliullin,  T. Kus,  A. Landau,  J. Liu,  E. I. Proynov,  Y. M. Rhee,  
 R. M. Richard,  M. A. Rohrdanz,  R. P. Steele,  E. J. Sundstrom,  
 H. L. Woodcock III,  P. M. Zimmerman,  D. Zuev,  B. Albrecht,  E. Alguire,  
 B. Austin,  S. A. Baeppler,  G. J. O. Beran,  Y. A. Bernard,  E. Berquist,  
 K. Brandhorst,  K. B. Bravaya,  S. T. Brown,  D. Casanova,  C.-M. Chang,  
 Y. Chen,  S. H. Chien,  K. D. Closser,  M. P. Coons,  D. L. Crittenden,  
 S. Dasgupta,  M. Diedenhofen,  R. A. DiStasio Jr.,  H. Do,  A. D. Dutoi,  
 R. G. Edgar,  P.-T. Fang,  S. Fatehi,  Q. Feng,  L. Fusti-Molnar,  
 A. Ghysels,  A. Golubeva-Zadorozhnaya,  J. Gomes,  A. Gunina,  
 M. W. D. Hanson-Heine,  P. H. P. Harbach,  A. W. Hauser,  E. G. Hohenstein,  
 Z. C. Holden,  K. Hui,  T.-C. Jagau,  H. Ji,  B. Kaduk,  K. Khistyaev,  
 Jaehoon Kim,  Jihan Kim,  R. A. King,  P. Klunzinger,  D. Kosenkov,  
 T. Kowalczyk,  C. M. Krauter,  A. Kunitsa,  K. U. Lao,  A. Laurent,  
 K. V. Lawler,  D. Lefrancois,  S. Lehtola,  S. V. Levchenko,  C. Y. Lin,  
 Y.-S. Lin,  F. Liu,  E. Livshits,  R. C. Lochan,  A. Luenser,  P. Manohar,  
 S. F. Manzer,  S.-P. Mao,  Y. Mao,  N. Mardirossian,  A. V. Marenich,  
 L. A. Martinez-Martinez,  S. A. Maurer,  N. J. Mayhall,  J.-M. Mewes,  
 A. F. Morrison,  K. Nanda,  C. M. Oana,  R. Olivares-Amaya,  D. P. O'Neill,  
 J. A. Parkhill,  T. M. Perrine,  R. Peverati,  P. A. Pieniazek,  F. Plasser,  
 A. Prociuk,  D. R. Rehn,  E. Rosta,  N. J. Russ,  N. Sergueev,  
 S. M. Sharada,  S. Sharma,  D. W. Small,  A. Sodt,  T. Stauch,  T. Stein,  
 D. Stuck,  Y.-C. Su,  A. J. W. Thom,  T. Tsuchimochi,  L. Vogt,  O. Vydrov,  
 T. Wang,  M. A. Watson,  J. Wenzel,  A. White,  C. F. Williams,  
 V. Vanovschi,  S. Yeganeh,  S. R. Yost,  Z.-Q. You,  I. Y. Zhang,  X. Zhang,  
 Y. Zhao,  B. R. Brooks,  G. K. L. Chan,  D. M. Chipman,  C. J. Cramer,  
 W. A. Goddard III,  M. S. Gordon,  W. J. Hehre,  A. Klamt,  
 H. F. Schaefer III,  M. W. Schmidt,  C. D. Sherrill,  D. G. Truhlar,  
 A. Warshel,  X. Xu,  A. Aspuru-Guzik,  R. Baer,  A. T. Bell,  N. A. Besley,  
 J.-D. Chai,  A. Dreuw,  B. D. Dunietz,  T. R. Furlani,  S. R. Gwaltney,  
 C.-P. Hsu,  Y. Jung,  J. Kong,  D. S. Lambrecht,  W. Liang,  C. Ochsenfeld,  
 V. A. Rassolov,  L. V. Slipchenko,  J. E. Subotnik,  T. Van Voorhis,  
 J. M. Herbert,  A. I. Krylov,  P. M. W. Gill,  M. Head-Gordon

 Contributors to earlier versions of Q-Chem not listed above: 
 R. D. Adamson,  J. Baker,  E. F. C. Byrd,  A. K. Chakraborty,  C.-L. Cheng,  
 H. Dachsel,  R. J. Doerksen,  G. Hawkins,  A. Heyden,  S. Hirata,  
 G. Kedziora,  F. J. Keil,  C. Kelley,  P. P. Korambath,  W. Kurlancheek,  
 A. M. Lee,  M. S. Lee,  D. Liotard,  I. Lotan,  P. E. Maslen,  N. Nair,  
 D. Neuhauser,  R. Olson,  B. Peters,  J. Ritchie,  N. E. Schultz,  
 N. Shenvi,  A. C. Simmonett,  K. S. Thanthiriwatte,  Q. Wu,  W. Zhang

 Please cite Q-Chem as follows:
 Y. Shao et al., Mol. Phys. 113, 184-215 (2015)
 DOI: 10.1080/00268976.2014.952696

 Q-Chem 4.4.1 for Intel X86 Linux

 Parts of Q-Chem use Armadillo 5.200.1 (Boston Tea Smuggler).
 http://arma.sourceforge.net/

 Q-Chem begins on Fri Jan 17 20:00:31 2020  

Host: 
0

     Scratch files written to /tmp/5732853.priya/ZrOx.save//
 Jul2716 11668_ 21447  21445 5558   
 Parallel job on  1  processors
Processing $rem in /usr/usc/qchem/4.4/config/preferences.
 MEM_TOTAL  2000 

Checking the input file for inconsistencies... 	...done.

--------------------------------------------------------------
User input:
--------------------------------------------------------------
$comment
--------------------------------------------------------
A SINGLE POINT DFT CALCULATION WITH BASIS SET PROJECTION
--------------------------------------------------------
$end

$molecule
0 3
Zr 0.00000 0.00000 1.91285
O 0.00000 1.43659 2.85945
O 0.00000 -1.43659 2.85945
O 0.00000 0.00000 0.00000
Zr 0.00000 0.00000 -1.91285
O 1.43659 0.00000 -2.85945
O -1.43659 0.00000 -2.85945
$end

$rem
JOBTYPE   SP
METHOD   B3LYP
BASIS   GEN
ECP   GEN
MAX_SCF_CYCLES   200
SCF_CONVERGENCE 8
SCF_ALGORITHM  DIIS_GDM
SCF_PRINT 1
PDB_PRINT 2
THRESH 14
VARTHRESH 14
INCDFT FALSE
SYMMETRY False
Sym_ignore True
SCF_ALGORITHM GDM
XC_GRID 000128000302
DFT_D           EMPIRICAL_GRIMME3
DFT_D3_S6       1000
DFT_D3_RS6     1261
DFT_D3_S8      1703
DFT_D3_3BODY    FALSE
$end

$basis
O
6-31+G**
****
S
6-31+G**
****
Zr
LanL2DZ
****
$end

$ecp
Zr
LanL2DZ
****
$end

--------------------------------------------------------------
 ----------------------------------------------------------------
             Standard Nuclear Orientation (Angstroms)
    I     Atom           X                Y                Z
 ----------------------------------------------------------------
    1      Zr      0.0000000000     0.0000000000     1.9128500000
    2      O       0.0000000000     1.4365900000     2.8594500000
    3      O       0.0000000000    -1.4365900000     2.8594500000
    4      O       0.0000000000     0.0000000000     0.0000000000
    5      Zr      0.0000000000     0.0000000000    -1.9128500000
    6      O       1.4365900000     0.0000000000    -2.8594500000
    7      O      -1.4365900000     0.0000000000    -2.8594500000
 ----------------------------------------------------------------
 Nuclear Repulsion Energy =   320.1457864456 hartrees
 There are       33 alpha and       31 beta electrons

 Q-Chem warning in module /home/scratch/svnadmin/11668_zgan/qchem/forms1/BasisType.C, line 1419:

 Setting pure/cartesian flag to 2111 for general basis


 Requested basis set is non-standard
 There are 41 shells and 134 basis functions

 Total QAlloc Memory Limit   2000 MB
 Mega-Array Size        61 MB
 MEM_STATIC part        62 MB

                       Distance Matrix (Angstroms)
             Zr(  1)   O (  2)   O (  3)   O (  4)   Zr(  5)   O (  6)
   O (  2)  1.720419
   O (  3)  1.720419  2.873180
   O (  4)  1.912850  3.200038  3.200038
   Zr(  5)  3.825700  4.983838  4.983838  1.912850
   O (  6)  4.983838  6.069053  6.069053  3.200038  1.720419
   O (  7)  4.983838  6.069053  6.069053  3.200038  1.720419  2.873180

 
 A cutoff of  1.0D-14 yielded    807 shell pairs
 There are      8801 function pairs (     10013 Cartesian)
 
 -------------------------------------------------------
 OpenMP Integral Computing Module                       
 Release: version 1.0, May 2013, Q-Chem Inc. Pittsburgh 
 -------------------------------------------------------
 Integral Job Info:
 Integral job number is                      11
 Integral operator is                         1
 short-range coefficients                     0
 long-range coefficients              100000000
 Omega coefficients                           0
 if combine SR and LR in K                    0
 Integral screening is                        0
 Integral computing path is                   2
 max size of driver memory is            800000
 size of driver memory is                593474
 size of scratch memory is             11771240
 max col of scratch BK array               1296
 max len of scratch array in speh3          155
 max len of scratch index in speh4           18
 max int batch size is                      520
 min int batch size is                       52
 fixed nKL is                                52
 max L of basis functions is                  2
 order of int derivative is                   0
 number of shells is                         41
 number of basis is                         143
 number of cartesian basis is               143
 number of contracted shell pairs           807
 number of primitive shell pairs           3432
 maxK2 (contraction) of shell pair           36
 max number of K2 of shell pair               1
 max number of CS2 of shell pair             70
 max number of PS2 of shell pair            276
 mem total for path MDJ                   38056
 -------------------------------------------------------
 Requested basis set is non-standard
 Compound shells will be simplified
 There are 56 shells and 134 basis functions
 A cutoff of  1.0D-14 yielded   1506 shell pairs
 There are      8756 function pairs (      9968 Cartesian)
 Smallest overlap matrix eigenvalue = 5.58E-04

 Scale SEOQF with 1.000000e-01/1.000000e-01/1.000000e-01

 Standard Electronic Orientation quadrupole field applied
 Nucleus-field energy     =    -0.0000000339 hartrees
 Guess MOs from core Hamiltonian diagonalization
 An unrestricted hybrid HF-DFT SCF calculation will be
 performed using Geometric Direct Minimization
 Exchange:     0.2000 Hartree-Fock + 0.0800 Slater + 0.7200 B88
 Correlation:  0.1900 VWN1RPA + 0.8100 LYP
 Using Euler-Maclaurin-Lebedev (128,302) quadrature formula
 Dispersion:   Grimme D3
 SCF converges when RMS gradient is below 1.0E-08
 Maximum number of minimization steps = 200
 using 12 threads for integral computing 
 -------------------------------------------------------
 OpenMP BLAS3 based DFT computing Module                
 Release: version 1.0, May 2013, Q-Chem Inc. Pittsburgh 
 -------------------------------------------------------
 
   ------------------- Entering Geometric Direct Minimization ------------------
   GDM:         diagonal hessian shift is      0.000000000000000E+000
   GDM::PreWSS: input subspace size is                  1
   GDM::PreWSS: working subspace size set to            1
   GDM::PrEWSS: # of linearly dependent vectors =            0
   GDM::PrEWSS: Max dev from orthonormality =   2.220446049250313E-016
   GDM::BFGS:   lowest Hinv e-value     1.00000000000000     
   GDM::BFGS:   highest Hinv e-value    1.00000000000000     
   GDM::      : max scaling in EWCs is          1.41421356237309     
   GDM::      : max rotation in step is       -8.180948700561980E-002
   GDM::        grad.step =   -3.66493923016249     
   ------- Leaving GDM -- hopefully with a step in the right direction! --------
 
 ---------------------------------------
  Cycle       Energy        RMS Gradient
 ---------------------------------------
    1    -442.1158361674      1.95E+00  Gap = 0.00 eV  Descent step
 
   ------------------- Entering Geometric Direct Minimization ------------------
   GDM::trust : actual energy change is        -3.60754728609396     
   GDM::trust : predicted energy change was   -0.163350000000000     
   GDM::trust : updated trust radius is        0.330000000000000     
   GDM::search:  On step            1 .  The current bracket is:
       left   : x =  0.0000E+00, e =      -442.1158361674, g = -0.8868E+01
       current: x =  0.4133E+00, e =      -445.7233834535, g = -0.8530E+01
       right  : x =  0.1000E+04, e =      1000.0000000000, g =  0.1000E+04
       next   : x =  0.4133E+01
   GDM::      : max rotation in step is       -0.818094870056198     
   ------- Leaving GDM -- hopefully with a step in the right direction! --------
 
    2    -445.7233834535      2.33E+00  Gap = 55.80 eV  Line search: understep
 
   ------------------- Entering Geometric Direct Minimization ------------------
   GDM::trust : actual energy change is        -11.7028896193083     
   GDM::trust : predicted energy change was   -0.163350000000000     
   GDM::trust : updated trust radius is        0.330000000000000     
   GDM:         diagonal hessian shift is      0.000000000000000E+000
   GDM::PreWSS: input subspace size is                  2
   GDM::PreWSS: working subspace size set to            2
   GDM::PrEWSS: # of linearly dependent vectors =            0
   GDM::PrEWSS: Max dev from orthonormality =   1.568190022283034E-015
   GDM::BFGS:   lowest Hinv e-value    0.497772635098416     
   GDM::BFGS:   highest Hinv e-value    1.17531356612910     
   GDM::      : max scaling in EWCs is          2.82842712474619     
   GDM::      : max rotation in step is       -0.188545056772632     
   GDM::        grad.step =   -2.43216480401068     
   ------- Leaving GDM -- hopefully with a step in the right direction! --------
 
    3    -453.8187257867      1.49E+00  Gap = 55.80 eV  Descent step
 
   ------------------- Entering Geometric Direct Minimization ------------------
   GDM::trust : actual energy change is        -2.35960966941497     
   GDM::trust : predicted energy change was   -0.189086237597912     
   GDM::trust : updated trust radius is        0.330000000000000     
   GDM:         diagonal hessian shift is      0.000000000000000E+000
   GDM::PreWSS: input subspace size is                  3
   GDM::PreWSS: working subspace size set to            3
   GDM::PrEWSS: # of linearly dependent vectors =            0
   GDM::PrEWSS: Max dev from orthonormality =   1.281960648746860E-014
   GDM::BFGS:   lowest Hinv e-value    0.406097478282300     
   GDM::BFGS:   highest Hinv e-value    2.23391432935603     
   GDM::      : max scaling in EWCs is          2.82842712474619     
   GDM::      : max rotation in step is       -0.103603093724676     
   GDM::        grad.step =   -1.94477760443478     
   ------- Leaving GDM -- hopefully with a step in the right direction! --------
 
    4    -456.1783354561      8.40E-01  Gap = 55.80 eV  Descent step
 
   ------------------- Entering Geometric Direct Minimization ------------------
   GDM::trust : actual energy change is        -1.86278567067291     
   GDM::trust : predicted energy change was   -0.177457818093922     
   GDM::trust : updated trust radius is        0.330000000000000     
   GDM:         diagonal hessian shift is      0.000000000000000E+000
   GDM::PreWSS: input subspace size is                  4
   GDM::PreWSS: working subspace size set to            4
   GDM::PrEWSS: # of linearly dependent vectors =            0
   GDM::PrEWSS: Max dev from orthonormality =   2.159175616078812E-013
   GDM::BFGS:   lowest Hinv e-value    0.415236233747246     
   GDM::BFGS:   highest Hinv e-value    1.91104230501993     
   GDM::      : max scaling in EWCs is          2.82842712474619     
   GDM::      : max rotation in step is        7.725186136626676E-002
   GDM::        grad.step =   -1.65971230326434     
   ------- Leaving GDM -- hopefully with a step in the right direction! --------
 
    5    -458.0411211268      7.78E-01  Gap = 55.80 eV  Descent step
 
   ------------------- Entering Geometric Direct Minimization ------------------
   GDM::trust : actual energy change is        -1.59151484026535     
   GDM::trust : predicted energy change was   -0.170071190391121     
   GDM::trust : updated trust radius is        0.330000000000000     
   GDM::search:  On step            1 .  The current bracket is:
       left   : x =  0.0000E+00, e =      -458.0411211268, g = -0.4794E+01
       current: x =  0.3462E+00, e =      -459.6326359670, g = -0.4380E+01
       right  : x =  0.1000E+04, e =      1000.0000000000, g =  0.1000E+04
       next   : x =  0.3462E+01
   GDM::      : max rotation in step is        0.772518613662668     
   ------- Leaving GDM -- hopefully with a step in the right direction! --------
 
    6    -459.6326359670      2.23E+00  Gap = 55.80 eV  Line search: understep
 
   ------------------- Entering Geometric Direct Minimization ------------------
   GDM::trust : actual energy change is        -4.49514482745394     
   GDM::trust : predicted energy change was   -0.170071190391121     
   GDM::trust : updated trust radius is        0.330000000000000     
   GDM:         diagonal hessian shift is      0.000000000000000E+000
   GDM::PreWSS: input subspace size is                  5
   GDM::PreWSS: working subspace size set to            5
   GDM::PrEWSS: # of linearly dependent vectors =            0
   GDM::PrEWSS: Max dev from orthonormality =   4.320675761615433E-013
   GDM::BFGS:   lowest Hinv e-value    0.291978711525702     
   GDM::BFGS:   highest Hinv e-value    4.14654093198245     
   GDM::      : max scaling in EWCs is          2.82842712474619     
   GDM::      : max rotation in step is       -0.593950272922011     
   GDM::        grad.step =   -2.13148968709003     
   ------- Leaving GDM -- hopefully with a step in the right direction! --------
 
    7    -462.5362659542      4.11E+00  Gap = 55.80 eV  Descent step
 
   ------------------- Entering Geometric Direct Minimization ------------------
   GDM::trust : actual energy change is        -1.71295554747616     
   GDM::trust : predicted energy change was   -0.263775230314551     
   GDM::trust : updated trust radius is        0.330000000000000     
   GDM:         diagonal hessian shift is      0.000000000000000E+000
   GDM::PreWSS: input subspace size is                  6
   GDM::PreWSS: working subspace size set to            6
   GDM::PrEWSS: # of linearly dependent vectors =            0
   GDM::PrEWSS: Max dev from orthonormality =   3.099603906875359E-013
   GDM::BFGS:   lowest Hinv e-value    0.297308626203370     
   GDM::BFGS:   highest Hinv e-value    3.81759135418081     
   GDM::      : max scaling in EWCs is          2.82842712474619     
   GDM::      : max rotation in step is        0.165091973411003     
   GDM::        grad.step =   -1.15594419636106     
   ------- Leaving GDM -- hopefully with a step in the right direction! --------
 
    8    -464.2492215017      7.15E-01  Gap = 55.80 eV  Descent step
 
   ------------------- Entering Geometric Direct Minimization ------------------
   GDM::trust : actual energy change is        -1.01256649228503     
   GDM::trust : predicted energy change was   -0.249328799662978     
   GDM::trust : updated trust radius is        0.330000000000000     
   GDM:         diagonal hessian shift is      0.000000000000000E+000
   GDM::PreWSS: input subspace size is                  7
   GDM::PreWSS: working subspace size set to            7
   GDM::PrEWSS: # of linearly dependent vectors =            0
   GDM::PrEWSS: Max dev from orthonormality =   1.367690682929634E-012
   GDM::BFGS:   lowest Hinv e-value    0.279337306333262     
   GDM::BFGS:   highest Hinv e-value    3.57399819321502     
   GDM::      : max scaling in EWCs is          2.82842712474619     
   GDM::      : max rotation in step is       -0.192853120323585     
   GDM::        grad.step =  -0.820297166841587     
   ------- Leaving GDM -- hopefully with a step in the right direction! --------
 
    9    -465.2617879940      5.77E-01  Gap = 55.80 eV  Descent step
 
   ------------------- Entering Geometric Direct Minimization ------------------
   GDM::trust : actual energy change is       -0.719270391809687     
   GDM::trust : predicted energy change was   -0.207320637832127     
   GDM::trust : updated trust radius is        0.330000000000000     
   GDM:         diagonal hessian shift is      0.000000000000000E+000
   GDM::PreWSS: input subspace size is                  8
   GDM::PreWSS: working subspace size set to            8
   GDM::PrEWSS: # of linearly dependent vectors =            0
   GDM::PrEWSS: Max dev from orthonormality =   4.176051865423247E-013
   GDM::BFGS:   lowest Hinv e-value    0.236481262108793     
   GDM::BFGS:   highest Hinv e-value    3.42763627713491     
   GDM::      : max scaling in EWCs is          2.82842712474619     
   GDM::      : max rotation in step is        0.131094976227114     
   GDM::        grad.step =  -0.649303976682066     
   ------- Leaving GDM -- hopefully with a step in the right direction! --------
 
   10    -465.9810583858      4.06E-01  Gap = 55.80 eV  Descent step
 
   ------------------- Entering Geometric Direct Minimization ------------------
   GDM::trust : actual energy change is       -0.620822581391792     
   GDM::trust : predicted energy change was   -0.150925667117298     
   GDM::trust : updated trust radius is        0.330000000000000     
   GDM:         diagonal hessian shift is      0.000000000000000E+000
   GDM::PreWSS: input subspace size is                  9
   GDM::PreWSS: working subspace size set to            9
   GDM::PrEWSS: # of linearly dependent vectors =            0
   GDM::PrEWSS: Max dev from orthonormality =   7.776158189587434E-013
   GDM::BFGS:   lowest Hinv e-value    0.194747784069507     
   GDM::BFGS:   highest Hinv e-value    4.88119994628111     
   GDM::      : max scaling in EWCs is          2.82842712474619     
   GDM::      : max rotation in step is       -0.175547458513015     
   GDM::        grad.step =  -0.625048118283713     
   ------- Leaving GDM -- hopefully with a step in the right direction! --------
 
   11    -466.6018809672      5.30E-01  Gap = 55.80 eV  Descent step
 
   ------------------- Entering Geometric Direct Minimization ------------------
   GDM::trust : actual energy change is       -0.587190312345228     
   GDM::trust : predicted energy change was   -0.125153048963850     
   GDM::trust : updated trust radius is        0.330000000000000     
   GDM:         diagonal hessian shift is      0.000000000000000E+000
   GDM::PreWSS: input subspace size is                 10
   GDM::PreWSS: working subspace size set to           10
   GDM::PrEWSS: # of linearly dependent vectors =            0
   GDM::PrEWSS: Max dev from orthonormality =   5.919570389423257E-013
   GDM::BFGS:   lowest Hinv e-value    0.178734354674809     
   GDM::BFGS:   highest Hinv e-value    4.35144371719013     
   GDM::      : max scaling in EWCs is          2.82842712474619     
   GDM::      : max rotation in step is       -0.382924145438359     
   GDM::        grad.step =  -0.712166040730273     
   ------- Leaving GDM -- hopefully with a step in the right direction! --------
 
   12    -467.1890712795      8.85E-01  Gap = 55.80 eV  Descent step
 
   ------------------- Entering Geometric Direct Minimization ------------------
   GDM::trust : actual energy change is       -0.654826008542159     
   GDM::trust : predicted energy change was   -0.159128992398372     
   GDM::trust : updated trust radius is        0.330000000000000     
   GDM:         diagonal hessian shift is      0.000000000000000E+000
   GDM::PreWSS: input subspace size is                 11
   GDM::PreWSS: working subspace size set to           11
   GDM::PrEWSS: # of linearly dependent vectors =            0
   GDM::PrEWSS: Max dev from orthonormality =   1.349080569479355E-012
   GDM::BFGS:   lowest Hinv e-value    0.210652736599229     
   GDM::BFGS:   highest Hinv e-value    3.82076167878943     
   GDM::      : max scaling in EWCs is          2.82842712474619     
   GDM::      : max rotation in step is        0.197442770951195     
   GDM::        grad.step =  -0.467354889690724     
   ------- Leaving GDM -- hopefully with a step in the right direction! --------
 
   13    -467.8438972881      3.57E-01  Gap = 55.80 eV  Descent step
 
   ------------------- Entering Geometric Direct Minimization ------------------
   GDM::trust : actual energy change is       -0.433217095216037     
   GDM::trust : predicted energy change was   -0.153779201242391     
   GDM::trust : updated trust radius is        0.330000000000000     
   GDM:         diagonal hessian shift is      0.000000000000000E+000
   GDM::PreWSS: input subspace size is                 12
   GDM::PreWSS: working subspace size set to           12
   GDM::PrEWSS: # of linearly dependent vectors =            0
   GDM::PrEWSS: Max dev from orthonormality =   3.596081765699921E-013
   GDM::BFGS:   lowest Hinv e-value    0.235947705394292     
   GDM::BFGS:   highest Hinv e-value    4.06484616309006     
   GDM::      : max scaling in EWCs is          2.82842712474619     
   GDM::      : max rotation in step is        0.428209295863158     
   GDM::        grad.step =  -0.440814664779525     
   ------- Leaving GDM -- hopefully with a step in the right direction! --------
 
   14    -468.2771143833      6.13E-01  Gap = 55.80 eV  Descent step
 
   ------------------- Entering Geometric Direct Minimization ------------------
   GDM::trust : actual energy change is       -0.403266178272020     
   GDM::trust : predicted energy change was   -0.131410845950684     
   GDM::trust : updated trust radius is        0.330000000000000     
   GDM:         diagonal hessian shift is      0.000000000000000E+000
   GDM::PreWSS: input subspace size is                 13
   GDM::PreWSS: working subspace size set to           13
   GDM::PrEWSS: # of linearly dependent vectors =            0
   GDM::PrEWSS: Max dev from orthonormality =   3.920613833585662E-013
   GDM::BFGS:   lowest Hinv e-value    0.308142108960119     
   GDM::BFGS:   highest Hinv e-value    4.06347710072012     
   GDM::      : max scaling in EWCs is          2.82842712474619     
   GDM::      : max rotation in step is       -0.561195520336431     
   GDM::        grad.step =  -0.353597006538327     
   ------- Leaving GDM -- hopefully with a step in the right direction! --------
 
   15    -468.6803805616      6.44E-01  Gap = 55.80 eV  Descent step
 
   ------------------- Entering Geometric Direct Minimization ------------------
   GDM::trust : actual energy change is       -0.300824436469213     
   GDM::trust : predicted energy change was   -0.140012900888913     
   GDM::trust : updated trust radius is        0.330000000000000     
   GDM:         diagonal hessian shift is      0.000000000000000E+000
   GDM::PreWSS: input subspace size is                 14
   GDM::PreWSS: working subspace size set to           14
   GDM::PrEWSS: # of linearly dependent vectors =            0
   GDM::PrEWSS: Max dev from orthonormality =   6.690273335330232E-013
   GDM::BFGS:   lowest Hinv e-value    0.289724391873530     
   GDM::BFGS:   highest Hinv e-value    4.12930437656026     
   GDM::      : max scaling in EWCs is          2.82842712474619     
   GDM::      : max rotation in step is       -0.558578398286464     
   GDM::        grad.step =  -0.231476129422097     
   ------- Leaving GDM -- hopefully with a step in the right direction! --------
 
   16    -468.9812049980      4.44E-01  Gap = 55.80 eV  Descent step
 
   ------------------- Entering Geometric Direct Minimization ------------------
   GDM::trust : actual energy change is       -0.206052591448383     
   GDM::trust : predicted energy change was   -0.146661954915772     
   GDM::trust : updated trust radius is        0.330000000000000     
   GDM:         diagonal hessian shift is      0.000000000000000E+000
   GDM::PreWSS: input subspace size is                 15
   GDM::PreWSS: working subspace size set to           15
   GDM::PrEWSS: # of linearly dependent vectors =            0
   GDM::PrEWSS: Max dev from orthonormality =   1.205121072378468E-012
   GDM::BFGS:   lowest Hinv e-value    0.289674652295039     
   GDM::BFGS:   highest Hinv e-value    4.67383700866005     
   GDM::      : max scaling in EWCs is          2.82842712474619     
   GDM::      : max rotation in step is       -0.398886144338685     
   GDM::        grad.step =  -0.149324200718345     
   ------- Leaving GDM -- hopefully with a step in the right direction! --------
 
   17    -469.1872575895      2.67E-01  Gap = 55.80 eV  Descent step
 
   ------------------- Entering Geometric Direct Minimization ------------------
   GDM::trust : actual energy change is       -7.580326511401836E-002
   GDM::trust : predicted energy change was   -0.142826126160333     
   GDM::trust : updated trust radius is        0.330000000000000     
   GDM:         diagonal hessian shift is      0.000000000000000E+000
   GDM::PreWSS: input subspace size is                 16
   GDM::PreWSS: working subspace size set to           16
   GDM::PrEWSS: # of linearly dependent vectors =            0
   GDM::PrEWSS: Max dev from orthonormality =   1.981328295874718E-012
   GDM::BFGS:   lowest Hinv e-value    0.327135071950985     
   GDM::BFGS:   highest Hinv e-value    4.48559995272547     
   GDM::      : max scaling in EWCs is          2.82842712474619     
   GDM::      : max rotation in step is       -0.228792729152856     
   GDM::        grad.step =  -5.868277147193433E-002
   ------- Leaving GDM -- hopefully with a step in the right direction! --------
 
   18    -469.2630608546      9.26E-02  Gap = 55.80 eV  Normal BFGS step
 
   ------------------- Entering Geometric Direct Minimization ------------------
   GDM::trust : actual energy change is       -2.299673245033773E-003
   GDM::trust : predicted energy change was   -8.802415720790152E-002
   GDM::trust : updated trust radius is        0.330000000000000     
   GDM:         diagonal hessian shift is      0.000000000000000E+000
   GDM::PreWSS: input subspace size is                 17
   GDM::PreWSS: working subspace size set to           17
   GDM::PrEWSS: # of linearly dependent vectors =            0
   GDM::PrEWSS: Max dev from orthonormality =   1.348587908012178E-012
   GDM::BFGS:   lowest Hinv e-value    0.279910281761513     
   GDM::BFGS:   highest Hinv e-value    4.16908653419837     
   GDM::      : max scaling in EWCs is          2.82842712474619     
   GDM::      : max rotation in step is        0.150535882751263     
   GDM::        grad.step =  -4.540653004260198E-002
   ------- Leaving GDM -- hopefully with a step in the right direction! --------
 
   19    -469.2653605278      1.07E-01  Gap = 55.80 eV  Normal BFGS step
 
   ------------------- Entering Geometric Direct Minimization ------------------
   GDM::trust : actual energy change is       -1.405288271922700E-002
   GDM::trust : predicted energy change was   -6.810979506390298E-002
   GDM::trust : updated trust radius is        0.330000000000000     
   GDM:         diagonal hessian shift is      0.000000000000000E+000
   GDM::PreWSS: input subspace size is                 18
   GDM::PreWSS: working subspace size set to           18
   GDM::PrEWSS: # of linearly dependent vectors =            0
   GDM::PrEWSS: Max dev from orthonormality =   2.019918954321298E-012
   GDM::BFGS:   lowest Hinv e-value    0.289828091371197     
   GDM::BFGS:   highest Hinv e-value    3.90274860391697     
   GDM::      : max scaling in EWCs is          2.82842712474619     
   GDM::      : max rotation in step is        0.134996219513287     
   GDM::        grad.step =  -2.247453284457214E-002
   ------- Leaving GDM -- hopefully with a step in the right direction! --------
 
   20    -469.2794134106      3.17E-02  Gap = 55.80 eV  Normal BFGS step
 
   ------------------- Entering Geometric Direct Minimization ------------------
   GDM::trust : actual energy change is        4.912455874887200E-003
   GDM::trust : predicted energy change was   -3.371179926685823E-002
   GDM::trust : updated trust radius is        0.108900000000000     
   GDM::search:  On step            1 .  The current bracket is:
       left   : x =  0.0000E+00, e =      -469.2794134106, g = -0.8246E-01
       current: x =  0.2726E+00, e =      -469.2745009547, g =  0.1227E+00
       right  : x =  0.1000E+04, e =      1000.0000000000, g =  0.1000E+04
       next   : x =  0.1118E+00
   GDM::      : max rotation in step is        5.539084636911379E-002
   ------- Leaving GDM -- hopefully with a step in the right direction! --------
 
   21    -469.2745009547      2.21E-02  Gap = 55.80 eV  Line search: overstep
 
   ------------------- Entering Geometric Direct Minimization ------------------
   GDM::trust : actual energy change is       -4.724944576082635E-003
   GDM::trust : predicted energy change was   -3.371179926685823E-002
   GDM::trust : updated trust radius is        0.108900000000000     
   GDM:         diagonal hessian shift is      0.000000000000000E+000
   GDM::PreWSS: input subspace size is                 19
   GDM::PreWSS: working subspace size set to           18
   GDM::PrEWSS: # of linearly dependent vectors =            0
   GDM::PrEWSS: Max dev from orthonormality =   1.006751279564178E-011
   GDM::BFGS:   lowest Hinv e-value    0.295352138466124     
   GDM::BFGS:   highest Hinv e-value    4.25993608197338     
   GDM::      : max scaling in EWCs is          2.82842712474619     
   GDM::      : max rotation in step is        4.511176872915824E-002
   GDM::        grad.step =  -4.180788818603926E-003
   ------- Leaving GDM -- hopefully with a step in the right direction! --------
 
   22    -469.2841383551      2.52E-02  Gap = 55.80 eV  Normal BFGS step
 
   ------------------- Entering Geometric Direct Minimization ------------------
   GDM::trust : actual energy change is       -1.155716918844973E-003
   GDM::trust : predicted energy change was   -6.271183227905888E-003
   GDM::trust : updated trust radius is        0.330000000000000     
   GDM:         diagonal hessian shift is      0.000000000000000E+000
   GDM::PreWSS: input subspace size is                 19
   GDM::PreWSS: working subspace size set to           18
   GDM::PrEWSS: # of linearly dependent vectors =            0
   GDM::PrEWSS: Max dev from orthonormality =   1.256057063914184E-011
   GDM::BFGS:   lowest Hinv e-value    0.302309289744293     
   GDM::BFGS:   highest Hinv e-value    3.20860338727426     
   GDM::      : max scaling in EWCs is          2.82842712474619     
   GDM::      : max rotation in step is       -2.419742608842920E-002
   GDM::        grad.step =  -1.149392073317950E-003
   ------- Leaving GDM -- hopefully with a step in the right direction! --------
 
   23    -469.2852940721      1.69E-02  Gap = 55.80 eV  Normal BFGS step
 
   ------------------- Entering Geometric Direct Minimization ------------------
   GDM::trust : actual energy change is       -3.548695494259846E-004
   GDM::trust : predicted energy change was   -1.724088109976925E-003
   GDM::trust : updated trust radius is        0.330000000000000     
   GDM:         diagonal hessian shift is      0.000000000000000E+000
   GDM::PreWSS: input subspace size is                 19
   GDM::PreWSS: working subspace size set to           18
   GDM::PrEWSS: # of linearly dependent vectors =            0
   GDM::PrEWSS: Max dev from orthonormality =   7.173988833542033E-012
   GDM::BFGS:   lowest Hinv e-value    0.301328884963727     
   GDM::BFGS:   highest Hinv e-value    2.57070761172622     
   GDM::      : max scaling in EWCs is          2.82842712474619     
   GDM::      : max rotation in step is        2.013392618140487E-002
   GDM::        grad.step =  -4.639791596156508E-004
   ------- Leaving GDM -- hopefully with a step in the right direction! --------
 
   24    -469.2856489416      1.11E-02  Gap = 55.80 eV  Normal BFGS step
 
   ------------------- Entering Geometric Direct Minimization ------------------
   GDM::trust : actual energy change is       -7.512544829069157E-005
   GDM::trust : predicted energy change was   -6.959687394234764E-004
   GDM::trust : updated trust radius is        0.330000000000000     
   GDM:         diagonal hessian shift is      0.000000000000000E+000
   GDM::PreWSS: input subspace size is                 19
   GDM::PreWSS: working subspace size set to           18
   GDM::PrEWSS: # of linearly dependent vectors =            0
   GDM::PrEWSS: Max dev from orthonormality =   8.464132172925076E-012
   GDM::BFGS:   lowest Hinv e-value    0.299802187453287     
   GDM::BFGS:   highest Hinv e-value    2.52792710879045     
   GDM::      : max scaling in EWCs is          2.82842712474619     
   GDM::      : max rotation in step is       -7.636494163270069E-003
   GDM::        grad.step =  -1.916182505966105E-004
   ------- Leaving GDM -- hopefully with a step in the right direction! --------
 
   25    -469.2857240671      6.10E-03  Gap = 55.80 eV  Normal BFGS step
 
   ------------------- Entering Geometric Direct Minimization ------------------
   GDM::trust : actual energy change is       -8.583194130551419E-005
   GDM::trust : predicted energy change was   -2.874273758949159E-004
   GDM::trust : updated trust radius is        0.330000000000000     
   GDM:         diagonal hessian shift is      0.000000000000000E+000
   GDM::PreWSS: input subspace size is                 19
   GDM::PreWSS: working subspace size set to           18
   GDM::PrEWSS: # of linearly dependent vectors =            0
   GDM::PrEWSS: Max dev from orthonormality =   1.190654519422907E-011
   GDM::BFGS:   lowest Hinv e-value    0.299140026071118     
   GDM::BFGS:   highest Hinv e-value    2.29278356214369     
   GDM::      : max scaling in EWCs is          2.82842712474619     
   GDM::      : max rotation in step is       -2.652268767144807E-003
   GDM::        grad.step =  -1.589062360773955E-005
   ------- Leaving GDM -- hopefully with a step in the right direction! --------
 
   26    -469.2858098990      7.80E-04  Gap = 55.80 eV  Normal BFGS step
 
   ------------------- Entering Geometric Direct Minimization ------------------
   GDM::trust : actual energy change is       -4.621464029241906E-006
   GDM::trust : predicted energy change was   -2.383593541160932E-005
   GDM::trust : updated trust radius is        0.330000000000000     
   GDM:         diagonal hessian shift is      0.000000000000000E+000
   GDM::PreWSS: input subspace size is                 19
   GDM::PreWSS: working subspace size set to           18
   GDM::PrEWSS: # of linearly dependent vectors =            0
   GDM::PrEWSS: Max dev from orthonormality =   1.141278044292093E-011
   GDM::BFGS:   lowest Hinv e-value    0.307218657853586     
   GDM::BFGS:   highest Hinv e-value    1.90974471412365     
   GDM::      : max scaling in EWCs is          2.82842712474619     
   GDM::      : max rotation in step is        1.456559215634441E-003
   GDM::        grad.step =  -4.356299185614466E-006
   ------- Leaving GDM -- hopefully with a step in the right direction! --------
 
   27    -469.2858145205      7.66E-04  Gap = 55.80 eV  Normal BFGS step
 
   ------------------- Entering Geometric Direct Minimization ------------------
   GDM::trust : actual energy change is       -1.876188491678477E-006
   GDM::trust : predicted energy change was   -6.534448778421699E-006
   GDM::trust : updated trust radius is        0.330000000000000     
   GDM:         diagonal hessian shift is      0.000000000000000E+000
   GDM::PreWSS: input subspace size is                 19
   GDM::PreWSS: working subspace size set to           18
   GDM::PrEWSS: # of linearly dependent vectors =            0
   GDM::PrEWSS: Max dev from orthonormality =   1.593657150689154E-011
   GDM::BFGS:   lowest Hinv e-value    0.287421876903208     
   GDM::BFGS:   highest Hinv e-value    1.80625059508577     
   GDM::      : max scaling in EWCs is          2.82842712474619     
   GDM::      : max rotation in step is       -4.816598772119104E-004
   GDM::        grad.step =  -8.689444014054806E-007
   ------- Leaving GDM -- hopefully with a step in the right direction! --------
 
   28    -469.2858163967      4.11E-04  Gap = 55.80 eV  Normal BFGS step
 
   ------------------- Entering Geometric Direct Minimization ------------------
   GDM::trust : actual energy change is       -2.770578362287779E-007
   GDM::trust : predicted energy change was   -1.303416602108221E-006
   GDM::trust : updated trust radius is        0.330000000000000     
   GDM:         diagonal hessian shift is      0.000000000000000E+000
   GDM::PreWSS: input subspace size is                 19
   GDM::PreWSS: working subspace size set to           18
   GDM::PrEWSS: # of linearly dependent vectors =            0
   GDM::PrEWSS: Max dev from orthonormality =   1.805436355972745E-011
   GDM::BFGS:   lowest Hinv e-value    0.268326077591172     
   GDM::BFGS:   highest Hinv e-value    1.78084047842351     
   GDM::      : max scaling in EWCs is          2.82842712474619     
   GDM::      : max rotation in step is       -2.235903171666397E-004
   GDM::        grad.step =  -2.114431545923502E-007
   ------- Leaving GDM -- hopefully with a step in the right direction! --------
 
   29    -469.2858166737      1.68E-04  Gap = 55.80 eV  Normal BFGS step
 
   ------------------- Entering Geometric Direct Minimization ------------------
   GDM::trust : actual energy change is       -1.086389715965197E-007
   GDM::trust : predicted energy change was   -3.171647318885252E-007
   GDM::trust : updated trust radius is        0.330000000000000     
   GDM:         diagonal hessian shift is      0.000000000000000E+000
   GDM::PreWSS: input subspace size is                 19
   GDM::PreWSS: working subspace size set to           18
   GDM::PrEWSS: # of linearly dependent vectors =            0
   GDM::PrEWSS: Max dev from orthonormality =   5.314456513749732E-011
   GDM::BFGS:   lowest Hinv e-value    0.278920783203720     
   GDM::BFGS:   highest Hinv e-value    1.87889101612678     
   GDM::      : max scaling in EWCs is          2.82842712474619     
   GDM::      : max rotation in step is       -1.327654805900997E-004
   GDM::        grad.step =  -3.257180060563659E-008
   ------- Leaving GDM -- hopefully with a step in the right direction! --------
 
   30    -469.2858167824      4.90E-05  Gap = 55.80 eV  Normal BFGS step
 
   ------------------- Entering Geometric Direct Minimization ------------------
   GDM::trust : actual energy change is        1.424911033609533E-008
   GDM::trust : predicted energy change was   -4.885770090845488E-008
   GDM::trust : updated trust radius is        0.108900000000000     
   GDM::search:  On step            1 .  The current bracket is:
       left   : x =  0.0000E+00, e =      -469.2858167824, g = -0.1118E-03
       current: x =  0.2912E-03, e =      -469.2858167681, g =  0.2097E-03
       right  : x =  0.1000E+04, e =      1000.0000000000, g =  0.1000E+04
       next   : x =  0.1013E-03
   GDM::      : max rotation in step is       -4.618033560340083E-005
   ------- Leaving GDM -- hopefully with a step in the right direction! --------
 
   31    -469.2858167681      5.50E-05  Gap = 55.80 eV  Line search: overstep
 
   ------------------- Entering Geometric Direct Minimization ------------------
   GDM::trust : actual energy change is       -5.664503532898379E-009
   GDM::trust : predicted energy change was   -4.885770090845488E-008
   GDM::trust : updated trust radius is        0.108900000000000     
   GDM:         diagonal hessian shift is      0.000000000000000E+000
   GDM::PreWSS: input subspace size is                 19
   GDM::PreWSS: working subspace size set to           18
   GDM::PrEWSS: # of linearly dependent vectors =            0
   GDM::PrEWSS: Max dev from orthonormality =   4.976986878180156E-011
   GDM::BFGS:   lowest Hinv e-value    0.182371109349108     
   GDM::BFGS:   highest Hinv e-value    2.52627408541749     
   GDM::      : max scaling in EWCs is          2.82842712474619     
   GDM::      : max rotation in step is       -1.617358874377402E-004
   GDM::        grad.step =  -2.359066446251602E-008
   ------- Leaving GDM -- hopefully with a step in the right direction! --------
 
   32    -469.2858167880      4.44E-05  Gap = 55.80 eV  Normal BFGS step
 
   ------------------- Entering Geometric Direct Minimization ------------------
   GDM::trust : actual energy change is       -9.885638974083122E-010
   GDM::trust : predicted energy change was   -3.538599669377402E-008
   GDM::trust : updated trust radius is        0.330000000000000     
   GDM:         diagonal hessian shift is      0.000000000000000E+000
   GDM::PreWSS: input subspace size is                 19
   GDM::PreWSS: working subspace size set to           18
   GDM::PrEWSS: # of linearly dependent vectors =            0
   GDM::PrEWSS: Max dev from orthonormality =   7.625677866940350E-012
   GDM::BFGS:   lowest Hinv e-value    0.165764363814521     
   GDM::BFGS:   highest Hinv e-value    2.07571521374879     
   GDM::      : max scaling in EWCs is          2.82842712474619     
   GDM::      : max rotation in step is        5.038728215705287E-005
   GDM::        grad.step =  -1.275862292937947E-008
   ------- Leaving GDM -- hopefully with a step in the right direction! --------
 
   33    -469.2858167890      3.98E-05  Gap = 55.80 eV  Normal BFGS step
 
   ------------------- Entering Geometric Direct Minimization ------------------
   GDM::trust : actual energy change is       -6.369134553096956E-009
   GDM::trust : predicted energy change was   -1.913793439406921E-008
   GDM::trust : updated trust radius is        0.330000000000000     
   GDM:         diagonal hessian shift is      0.000000000000000E+000
   GDM::PreWSS: input subspace size is                 19
   GDM::PreWSS: working subspace size set to           18
   GDM::PrEWSS: # of linearly dependent vectors =            0
   GDM::PrEWSS: Max dev from orthonormality =   1.733560690830860E-011
   GDM::BFGS:   lowest Hinv e-value    0.165753994718249     
   GDM::BFGS:   highest Hinv e-value    2.10190331968949     
   GDM::      : max scaling in EWCs is          2.82842712474619     
   GDM::      : max rotation in step is        5.507974212597907E-006
   GDM::        grad.step =  -9.922181642205675E-011
   ------- Leaving GDM -- hopefully with a step in the right direction! --------
 
   34    -469.2858167954      3.67E-06  Gap = 55.80 eV  Normal BFGS step
 
   ------------------- Entering Geometric Direct Minimization ------------------
   GDM::trust : actual energy change is       -4.916955731459893E-011
   GDM::trust : predicted energy change was   -1.488327246330852E-010
   GDM::trust : updated trust radius is        0.330000000000000     
   GDM:         diagonal hessian shift is      0.000000000000000E+000
   GDM::PreWSS: input subspace size is                 19
   GDM::PreWSS: working subspace size set to           16
   GDM::PrEWSS: # of linearly dependent vectors =            0
   GDM::PrEWSS: Max dev from orthonormality =   5.726308316411632E-012
   GDM::BFGS:   lowest Hinv e-value    0.165981448765654     
   GDM::BFGS:   highest Hinv e-value    2.10139459574154     
   GDM::      : max scaling in EWCs is          2.82842712474619     
   GDM::      : max rotation in step is       -1.574000045013666E-006
   GDM::        grad.step =  -1.478850871639478E-011
   ------- Leaving GDM -- hopefully with a step in the right direction! --------
 
   35    -469.2858167954      8.29E-07  Gap = 55.80 eV  Normal BFGS step
 
   ------------------- Entering Geometric Direct Minimization ------------------
   GDM::trust : actual energy change is       -6.764366844436154E-012
   GDM::trust : predicted energy change was   -2.218276307459217E-011
   GDM::trust : updated trust radius is        0.330000000000000     
   GDM:         diagonal hessian shift is      0.000000000000000E+000
   GDM::PreWSS: input subspace size is                 17
   GDM::PreWSS: working subspace size set to           14
   GDM::PrEWSS: # of linearly dependent vectors =            0
   GDM::PrEWSS: Max dev from orthonormality =   7.565488166494383E-012
   GDM::BFGS:   lowest Hinv e-value    0.165901901406252     
   GDM::BFGS:   highest Hinv e-value    2.20043735892602     
   GDM::      : max scaling in EWCs is          2.82842712474619     
   GDM::      : max rotation in step is       -4.233738065070194E-007
   GDM::        grad.step =  -1.146019665025085E-012
   ------- Leaving GDM -- hopefully with a step in the right direction! --------
 
   36    -469.2858167954      2.28E-07  Gap = 55.80 eV  Normal BFGS step
 
   ------------------- Entering Geometric Direct Minimization ------------------
   GDM::trust : actual energy change is       -2.842170943040401E-013
   GDM::trust : predicted energy change was   -1.719029497537626E-012
   GDM::trust : updated trust radius is        0.330000000000000     
   GDM:         diagonal hessian shift is      0.000000000000000E+000
   GDM::PreWSS: input subspace size is                 15
   GDM::PreWSS: working subspace size set to           14
   GDM::PrEWSS: # of linearly dependent vectors =            0
   GDM::PrEWSS: Max dev from orthonormality =   9.668592315659197E-012
   GDM::BFGS:   lowest Hinv e-value    0.165946317140545     
   GDM::BFGS:   highest Hinv e-value    2.11510504782394     
   GDM::      : max scaling in EWCs is          2.82842712474619     
   GDM::      : max rotation in step is        2.038487769865215E-007
   GDM::        grad.step =  -3.895646420302803E-013
   ------- Leaving GDM -- hopefully with a step in the right direction! --------
 
   37    -469.2858167954      1.51E-07  Gap = 55.80 eV  Normal BFGS step
 
   ------------------- Entering Geometric Direct Minimization ------------------
   GDM::trust : actual energy change is       -7.389644451905042E-013
   GDM::trust : predicted energy change was   -5.843469630454203E-013
   GDM::trust : updated trust radius is        0.330000000000000     
   GDM:         diagonal hessian shift is      0.000000000000000E+000
   GDM::PreWSS: input subspace size is                 15
   GDM::PreWSS: working subspace size set to           15
   GDM::PrEWSS: # of linearly dependent vectors =            1
   GDM::PrEWSS: Max dev from orthonormality =   9.218799335020122E-012
   GDM::BFGS:   lowest Hinv e-value    0.166050109632234     
   GDM::BFGS:   highest Hinv e-value    2.09019206115843     
   GDM::      : max scaling in EWCs is          2.82842712474619     
   GDM::      : max rotation in step is        6.256015677651459E-008
   GDM::        grad.step =  -2.936721218166851E-013
   ------- Leaving GDM -- hopefully with a step in the right direction! --------
 
   38    -469.2858167954      1.20E-07  Gap = 55.80 eV  Normal BFGS step
 
   ------------------- Entering Geometric Direct Minimization ------------------
   GDM::trust : actual energy change is       -1.705302565824240E-013
   GDM::trust : predicted energy change was   -4.405081827250280E-013
   GDM::trust : updated trust radius is        0.330000000000000     
   GDM:         diagonal hessian shift is      0.000000000000000E+000
   GDM::PreWSS: input subspace size is                 16
   GDM::PreWSS: working subspace size set to           13
   GDM::PrEWSS: # of linearly dependent vectors =            0
   GDM::PrEWSS: Max dev from orthonormality =   1.673073138364067E-011
   GDM::BFGS:   lowest Hinv e-value    0.165962191845985     
   GDM::BFGS:   highest Hinv e-value    2.17898009911110     
   GDM::      : max scaling in EWCs is          2.82842712474619     
   GDM::      : max rotation in step is       -3.974024207388681E-008
   GDM::        grad.step =  -1.172170428021402E-014
   ------- Leaving GDM -- hopefully with a step in the right direction! --------
 
   39    -469.2858167954      1.92E-08  Gap = 55.80 eV  Normal BFGS step
 
   ------------------- Entering Geometric Direct Minimization ------------------
   GDM::trust : actual energy change is       -3.979039320256561E-013
   GDM::trust : predicted energy change was   -1.758255642032103E-014
   GDM::trust : updated trust radius is        0.330000000000000     
   GDM:         diagonal hessian shift is      0.000000000000000E+000
   GDM::PreWSS: input subspace size is                 14
   GDM::PreWSS: working subspace size set to           14
   GDM::PrEWSS: # of linearly dependent vectors =            1
   GDM::PrEWSS: Max dev from orthonormality =   7.560636144932076E-012
   GDM::BFGS:   lowest Hinv e-value    0.166124061086298     
   GDM::BFGS:   highest Hinv e-value    2.23433222798397     
   GDM::      : max scaling in EWCs is          2.82842712474619     
   GDM::      : max rotation in step is       -2.216223797201061E-008
   GDM::        grad.step =  -1.002349900778439E-014
   ------- Leaving GDM -- hopefully with a step in the right direction! --------
 
   40    -469.2858167954      2.63E-08  Gap = 55.80 eV  Normal BFGS step
 
   ------------------- Entering Geometric Direct Minimization ------------------
   GDM::trust : actual energy change is        6.252776074688882E-013
   GDM::trust : predicted energy change was   -1.503524851167659E-014
   GDM::trust : updated trust radius is        0.108900000000000     
   GDM::WARNING energy changes are now smaller than effective accuracy.
   GDM::        calculation will continue, but THRESH should be increased
   GDM::        or SCF_CONVERGENCE decreased.
   GDM::        effective_thresh =   3.300000000000000E-010
   GDM:         diagonal hessian shift is      0.000000000000000E+000
   GDM::PreWSS: input subspace size is                 15
   GDM::PreWSS: working subspace size set to           15
   GDM::PrEWSS: # of linearly dependent vectors =            2
   GDM::PrEWSS: Max dev from orthonormality =   7.050290906640555E-012
   GDM::BFGS:   lowest Hinv e-value    0.166039041170363     
   GDM::BFGS:   highest Hinv e-value    2.20374091622986     
   GDM::      : max scaling in EWCs is          2.82842712474619     
   GDM::      : max rotation in step is        1.514886678865881E-008
   GDM::        grad.step =  -1.266926129183459E-015
   ------- Leaving GDM -- hopefully with a step in the right direction! --------
 
   41    -469.2858167954      6.74E-09 Convergence criterion met
 ---------------------------------------
 One-Electron    Energy = -1312.6929119041
 Total Coulomb   Energy =   578.1475476349
 Alpha Exchange  Energy =    -5.3579581742
 Beta  Exchange  Energy =    -5.0190547234
 DFT   Exchange  Energy =   -41.6569918994
 DFT Correlation Energy =    -2.8522341410
 Nuclear Repu.   Energy =   320.1457864117
 Nuclear Attr.   Energy = -1735.2729632474
 Kinetic         Energy =   422.5800513433
 <S^2> = 2.0281
 SCF time:  CPU 287.39 s  wall 35.83 s
 SCF   energy in the final basis set = -469.2858167954
 Total energy in the final basis set = -469.2858167954
 
 --------------------------------------------------------------
 
                    Orbital Energies (a.u.)
 --------------------------------------------------------------
 
 Alpha MOs
 -- Occupied --
-19.170 -19.170 -19.170 -19.170 -19.165  -2.053  -2.053  -1.307
 -1.307  -1.297  -1.283  -1.254  -1.254  -0.951  -0.911  -0.885
 -0.879  -0.879  -0.453  -0.427  -0.427  -0.397  -0.388  -0.382
 -0.382  -0.375  -0.375  -0.365  -0.345  -0.345  -0.333  -0.310
 -0.310
 -- Virtual --
 -0.124  -0.110  -0.035  -0.035  -0.011  -0.006  -0.006  -0.001
  0.009   0.020   0.028   0.028   0.031   0.083   0.086   0.086
  0.086   0.111   0.111   0.123   0.150   0.156   0.162   0.176
  0.184   0.187   0.187   0.193   0.208   0.219   0.219   0.223
  0.226   0.226   0.235   0.255   0.256   0.256   0.269   0.272
  0.272   0.285   0.317   0.337   0.337   0.350   0.379   0.411
  0.453   0.453   0.768   0.768   0.787   0.821   1.136   1.137
  1.146   1.153   1.153   1.154   1.169   1.169   1.197   1.197
  1.212   1.231   1.231   1.254   1.513   1.603   1.683   1.683
  1.707   1.707   1.723   1.744   1.747   1.748   1.750   1.773
  1.773   1.777   1.778   1.791   1.791   1.815   1.831   1.831
  1.841   1.843   1.851   1.891   1.891   1.944   1.988   2.017
  2.160   2.160   2.198  14.875  21.290
 
 Beta MOs
 -- Occupied --
-19.161 -19.157 -19.157 -19.157 -19.157  -2.051  -2.051  -1.302
 -1.302  -1.291  -1.277  -1.251  -1.251  -0.932  -0.876  -0.858
 -0.847  -0.847  -0.428  -0.397  -0.397  -0.385  -0.371  -0.370
 -0.366  -0.343  -0.343  -0.310  -0.310  -0.297  -0.297
 -- Virtual --
 -0.238  -0.215  -0.119  -0.106  -0.033  -0.033  -0.009  -0.004
 -0.004   0.001   0.011   0.021   0.031   0.031   0.032   0.088
  0.089   0.093   0.093   0.112   0.112   0.131   0.153   0.156
  0.164   0.178   0.191   0.191   0.192   0.200   0.214   0.221
  0.221   0.227   0.227   0.227   0.236   0.258   0.258   0.258
  0.276   0.280   0.280   0.288   0.317   0.341   0.341   0.353
  0.383   0.413   0.454   0.454   0.771   0.771   0.791   0.826
  1.144   1.145   1.164   1.164   1.180   1.180   1.184   1.194
  1.209   1.209   1.221   1.254   1.254   1.262   1.525   1.616
  1.707   1.707   1.720   1.720   1.742   1.748   1.764   1.771
  1.772   1.781   1.781   1.782   1.796   1.815   1.815   1.822
  1.851   1.856   1.856   1.856   1.860   1.902   1.902   1.964
  2.018   2.049   2.183   2.183   2.211  14.875  21.290
 --------------------------------------------------------------
 
          Ground-State Mulliken Net Atomic Charges

     Atom                 Charge (a.u.)    Spin (a.u.)
  --------------------------------------------------------
      1 Zr                    1.561641      -0.019543
      2 O                    -0.481397       0.473983
      3 O                    -0.481397       0.473983
      4 O                    -1.197692       0.143152
      5 Zr                    1.561641      -0.019543
      6 O                    -0.481397       0.473983
      7 O                    -0.481397       0.473983
  --------------------------------------------------------
  Sum of atomic charges =     0.000000
  Sum of spin   charges =     2.000000

 -----------------------------------------------------------------
                    Cartesian Multipole Moments
 -----------------------------------------------------------------
    Charge (ESU x 10^10)
                 0.0000
    Dipole Moment (Debye)
         X       0.0000      Y       0.0000      Z       0.0000
       Tot       0.0000
    Quadrupole Moments (Debye-Ang)
        XX     -70.3151     XY       0.0000     YY     -70.3151
        XZ       0.0000     YZ       0.0000     ZZ     -98.3297
    Octopole Moments (Debye-Ang^2)
       XXX       0.0000    XXY       0.0000    XYY       0.0000
       YYY       0.0000    XXZ      33.7383    XYZ       0.0000
       YYZ     -33.7383    XZZ       0.0000    YZZ       0.0000
       ZZZ       0.0000
    Hexadecapole Moments (Debye-Ang^3)
      XXXX    -226.9935   XXXY       0.0000   XXYY     -74.0325
      XYYY       0.0000   YYYY    -226.9935   XXXZ       0.0000
      XXYZ       0.0000   XYYZ       0.0000   YYYZ       0.0000
      XXZZ    -440.9911   XYZZ       0.0000   YYZZ    -440.9911
      XZZZ       0.0000   YZZZ       0.0000   ZZZZ   -2536.4033
 -----------------------------------------------------------------
Archival summary:
1\1\hpc3919\SP\ProcedureUnspecified\BasisUnspecified\r25(+,3)\liqiuy\FriJan1720:01:082020FriJan1720:01:082020\0\\#,ProcedureUnspecified,BasisUnspecified,\\56,3\Zr\O,1,1.72042\O,1,1.72042,2,113.237\O,1,1.91285,2,123.382,3,-180,0\Zr,4,1.91285,1,180,2,0,0\O,5,1.72042,4,123.382,2,-90,0\O,5,1.72042,4,123.382,2,90,0\\\@

 Total job time:  37.15s(wall), 292.35s(cpu) 
 Fri Jan 17 20:01:08 2020

        *************************************************************
        *                                                           *
        *  Thank you very much for using Q-Chem.  Have a nice day.  *
        *                                                           *
        *************************************************************


0 sent ACK to 0 
now end server 0 ... 
cleanup process ... done

Running Job 2 of 2 ZrOx.in
qchem ZrOx.in_30323.1 /tmp/5732853.priya/ZrOx.save/ 1
/usr/usc/qchem/4.4/bin/mpi/mpirun_qchem -machinefile /usr/usc/qchem/4.4/bin/mpi/machines -np 1 /usr/usc/qchem/4.4/exe/qcprog.exe ZrOx.in_30323.1 /tmp/5732853.priya/ZrOx.save/

Process 0 of 1 is on hpc3919.hpcc.usc.edu - thread support 0
initial socket setup ...start
initial socket setup ...done 
now start server 0 ... 
Check license passed

                  Welcome to Q-Chem
     A Quantum Leap Into The Future Of Chemistry


 Q-Chem 4.4, Q-Chem, Inc., Pleasanton, CA (2016)

 Y. Shao,  Z. Gan,  E. Epifanovsky,  A. T. B. Gilbert,  M. Wormit,  
 J. Kussmann,  A. W. Lange,  A. Behn,  J. Deng,  X. Feng,  D. Ghosh,  
 M. Goldey,  P. R. Horn,  L. D. Jacobson,  I. Kaliman,  F.Rob,  
 R. Z. Khaliullin,  T. Kus,  A. Landau,  J. Liu,  E. I. Proynov,  Y. M. Rhee,  
 R. M. Richard,  M. A. Rohrdanz,  R. P. Steele,  E. J. Sundstrom,  
 H. L. Woodcock III,  P. M. Zimmerman,  D. Zuev,  B. Albrecht,  E. Alguire,  
 B. Austin,  S. A. Baeppler,  G. J. O. Beran,  Y. A. Bernard,  E. Berquist,  
 K. Brandhorst,  K. B. Bravaya,  S. T. Brown,  D. Casanova,  C.-M. Chang,  
 Y. Chen,  S. H. Chien,  K. D. Closser,  M. P. Coons,  D. L. Crittenden,  
 S. Dasgupta,  M. Diedenhofen,  R. A. DiStasio Jr.,  H. Do,  A. D. Dutoi,  
 R. G. Edgar,  P.-T. Fang,  S. Fatehi,  Q. Feng,  L. Fusti-Molnar,  
 A. Ghysels,  A. Golubeva-Zadorozhnaya,  J. Gomes,  A. Gunina,  
 M. W. D. Hanson-Heine,  P. H. P. Harbach,  A. W. Hauser,  E. G. Hohenstein,  
 Z. C. Holden,  K. Hui,  T.-C. Jagau,  H. Ji,  B. Kaduk,  K. Khistyaev,  
 Jaehoon Kim,  Jihan Kim,  R. A. King,  P. Klunzinger,  D. Kosenkov,  
 T. Kowalczyk,  C. M. Krauter,  A. Kunitsa,  K. U. Lao,  A. Laurent,  
 K. V. Lawler,  D. Lefrancois,  S. Lehtola,  S. V. Levchenko,  C. Y. Lin,  
 Y.-S. Lin,  F. Liu,  E. Livshits,  R. C. Lochan,  A. Luenser,  P. Manohar,  
 S. F. Manzer,  S.-P. Mao,  Y. Mao,  N. Mardirossian,  A. V. Marenich,  
 L. A. Martinez-Martinez,  S. A. Maurer,  N. J. Mayhall,  J.-M. Mewes,  
 A. F. Morrison,  K. Nanda,  C. M. Oana,  R. Olivares-Amaya,  D. P. O'Neill,  
 J. A. Parkhill,  T. M. Perrine,  R. Peverati,  P. A. Pieniazek,  F. Plasser,  
 A. Prociuk,  D. R. Rehn,  E. Rosta,  N. J. Russ,  N. Sergueev,  
 S. M. Sharada,  S. Sharma,  D. W. Small,  A. Sodt,  T. Stauch,  T. Stein,  
 D. Stuck,  Y.-C. Su,  A. J. W. Thom,  T. Tsuchimochi,  L. Vogt,  O. Vydrov,  
 T. Wang,  M. A. Watson,  J. Wenzel,  A. White,  C. F. Williams,  
 V. Vanovschi,  S. Yeganeh,  S. R. Yost,  Z.-Q. You,  I. Y. Zhang,  X. Zhang,  
 Y. Zhao,  B. R. Brooks,  G. K. L. Chan,  D. M. Chipman,  C. J. Cramer,  
 W. A. Goddard III,  M. S. Gordon,  W. J. Hehre,  A. Klamt,  
 H. F. Schaefer III,  M. W. Schmidt,  C. D. Sherrill,  D. G. Truhlar,  
 A. Warshel,  X. Xu,  A. Aspuru-Guzik,  R. Baer,  A. T. Bell,  N. A. Besley,  
 J.-D. Chai,  A. Dreuw,  B. D. Dunietz,  T. R. Furlani,  S. R. Gwaltney,  
 C.-P. Hsu,  Y. Jung,  J. Kong,  D. S. Lambrecht,  W. Liang,  C. Ochsenfeld,  
 V. A. Rassolov,  L. V. Slipchenko,  J. E. Subotnik,  T. Van Voorhis,  
 J. M. Herbert,  A. I. Krylov,  P. M. W. Gill,  M. Head-Gordon

 Contributors to earlier versions of Q-Chem not listed above: 
 R. D. Adamson,  J. Baker,  E. F. C. Byrd,  A. K. Chakraborty,  C.-L. Cheng,  
 H. Dachsel,  R. J. Doerksen,  G. Hawkins,  A. Heyden,  S. Hirata,  
 G. Kedziora,  F. J. Keil,  C. Kelley,  P. P. Korambath,  W. Kurlancheek,  
 A. M. Lee,  M. S. Lee,  D. Liotard,  I. Lotan,  P. E. Maslen,  N. Nair,  
 D. Neuhauser,  R. Olson,  B. Peters,  J. Ritchie,  N. E. Schultz,  
 N. Shenvi,  A. C. Simmonett,  K. S. Thanthiriwatte,  Q. Wu,  W. Zhang

 Please cite Q-Chem as follows:
 Y. Shao et al., Mol. Phys. 113, 184-215 (2015)
 DOI: 10.1080/00268976.2014.952696

 Q-Chem 4.4.1 for Intel X86 Linux

 Parts of Q-Chem use Armadillo 5.200.1 (Boston Tea Smuggler).
 http://arma.sourceforge.net/

 Q-Chem begins on Fri Jan 17 20:01:12 2020  

Host: 
0

     Scratch files written to /tmp/5732853.priya/ZrOx.save//
 Jul2716 11668_ 21447  21445 5558   
 Parallel job on  1  processors
Processing $rem in /usr/usc/qchem/4.4/config/preferences.
 MEM_TOTAL  2000 
The previous job contains 0 fragments, simply inherited here

Checking the input file for inconsistencies... 	...done.

--------------------------------------------------------------
User input:
--------------------------------------------------------------

$comment
-----------------------
A GEOMETRY OPTIMIZATION
-----------------------
$end

$molecule
READ
$end

$rem
JOBTYPE   OPT
METHOD   B3LYP
BASIS   GEN
ECP   GEN
SCF_GUESS   READ
MAX_SCF_CYCLES   200
SCF_CONVERGENCE 8
SCF_ALGORITHM  DIIS_GDM
SCF_PRINT 1
PDB_PRINT 2
THRESH 14
VARTHRESH 14
INCDFT FALSE
SYMMETRY False
Sym_ignore True
SCF_ALGORITHM GDM
XC_GRID 000128000302
GEOM_OPT_MAX_CYCLES 200
DFT_D           EMPIRICAL_GRIMME3
DFT_D3_S6       1000
DFT_D3_RS6     1261
DFT_D3_S8      1703
DFT_D3_3BODY    FALSE
SCF_PRINT 1
PDB_PRINT 2
$end

$basis
O
6-31+G**
****
S
6-31+G**
****
Zr
LanL2DZ
****
$end

$ecp
Zr
LanL2DZ
****
$end

--------------------------------------------------------------
 ----------------------------------------------------------------
             Standard Nuclear Orientation (Angstroms)
    I     Atom           X                Y                Z
 ----------------------------------------------------------------
    1      Zr      0.0000000000     0.0000000000     1.9128500000
    2      O       0.0000000000     1.4365900000     2.8594500000
    3      O       0.0000000000    -1.4365900000     2.8594500000
    4      O       0.0000000000     0.0000000000     0.0000000000
    5      Zr      0.0000000000     0.0000000000    -1.9128500000
    6      O       1.4365900000     0.0000000000    -2.8594500000
    7      O      -1.4365900000     0.0000000000    -2.8594500000
 ----------------------------------------------------------------
 Nuclear Repulsion Energy =   320.1457864456 hartrees
 There are       33 alpha and       31 beta electrons

 Q-Chem warning in module /home/scratch/svnadmin/11668_zgan/qchem/forms1/BasisType.C, line 1419:

 Setting pure/cartesian flag to 2111 for general basis


 Requested basis set is non-standard
 There are 41 shells and 134 basis functions

 Total QAlloc Memory Limit   2000 MB
 Mega-Array Size        61 MB
 MEM_STATIC part        62 MB
 A cutoff of  1.0D-14 yielded    807 shell pairs
 There are      8801 function pairs (     10013 Cartesian)
 
 -------------------------------------------------------
 OpenMP Integral Computing Module                       
 Release: version 1.0, May 2013, Q-Chem Inc. Pittsburgh 
 -------------------------------------------------------
 Integral Job Info:
 Integral job number is                      11
 Integral operator is                         1
 short-range coefficients                     0
 long-range coefficients              100000000
 Omega coefficients                           0
 if combine SR and LR in K                    0
 Integral screening is                        0
 Integral computing path is                   2
 max size of driver memory is            800000
 size of driver memory is                593474
 size of scratch memory is             11771240
 max col of scratch BK array               1296
 max len of scratch array in speh3          155
 max len of scratch index in speh4           18
 max int batch size is                      520
 min int batch size is                       52
 fixed nKL is                                52
 max L of basis functions is                  2
 order of int derivative is                   0
 number of shells is                         41
 number of basis is                         143
 number of cartesian basis is               143
 number of contracted shell pairs           807
 number of primitive shell pairs           3432
 maxK2 (contraction) of shell pair           36
 max number of K2 of shell pair               1
 max number of CS2 of shell pair             70
 max number of PS2 of shell pair            276
 mem total for path MDJ                   38056
 -------------------------------------------------------
 Requested basis set is non-standard
 Compound shells will be simplified
 There are 56 shells and 134 basis functions
 A cutoff of  1.0D-14 yielded   1506 shell pairs
 There are      8756 function pairs (      9968 Cartesian)
 Smallest overlap matrix eigenvalue = 5.58E-04

 Scale SEOQF with 1.000000e-01/1.000000e-01/1.000000e-01

 Standard Electronic Orientation quadrupole field applied
 Nucleus-field energy     =    -0.0000000339 hartrees
 Guess MOs from SCF MO coefficient file
 Reading MOs from coefficient file
 Reading MOs from coefficient file
 An unrestricted hybrid HF-DFT SCF calculation will be
 performed using Geometric Direct Minimization
 Exchange:     0.2000 Hartree-Fock + 0.0800 Slater + 0.7200 B88
 Correlation:  0.1900 VWN1RPA + 0.8100 LYP
 Using Euler-Maclaurin-Lebedev (128,302) quadrature formula
 Dispersion:   Grimme D3
 SCF converges when RMS gradient is below 1.0E-08
 Maximum number of minimization steps = 200
 using 12 threads for integral computing 
 -------------------------------------------------------
 OpenMP BLAS3 based DFT computing Module                
 Release: version 1.0, May 2013, Q-Chem Inc. Pittsburgh 
 -------------------------------------------------------
 
   ------------------- Entering Geometric Direct Minimization ------------------
   GDM:         diagonal hessian shift is      0.000000000000000E+000
   GDM::PreWSS: input subspace size is                  1
   GDM::PreWSS: working subspace size set to            1
   GDM::PrEWSS: # of linearly dependent vectors =            0
   GDM::PrEWSS: Max dev from orthonormality =   2.220446049250313E-016
   GDM::BFGS:   lowest Hinv e-value     1.00000000000000     
   GDM::BFGS:   highest Hinv e-value    1.00000000000000     
   GDM::      : max scaling in EWCs is          2.82842712474619     
   GDM::      : max rotation in step is       -6.955252009595720E-009
   GDM::        grad.step =  -3.349245699621044E-016
   ------- Leaving GDM -- hopefully with a step in the right direction! --------
 
 ---------------------------------------
  Cycle       Energy        RMS Gradient
 ---------------------------------------
    1    -469.2858167954      3.36E-09  Gap = 0.00 eV  Normal BFGS step
 
   ------------------- Entering Geometric Direct Minimization ------------------
   GDM::trust : actual energy change is        1.477928890381008E-012
   GDM::trust : predicted energy change was   -5.023868549431570E-016
   GDM::trust : updated trust radius is        0.108900000000000     
   GDM::WARNING energy changes are now smaller than effective accuracy.
   GDM::        calculation will continue, but THRESH should be increased
   GDM::        or SCF_CONVERGENCE decreased.
   GDM::        effective_thresh =   3.300000000000000E-010
   GDM:         diagonal hessian shift is      0.000000000000000E+000
   GDM::PreWSS: input subspace size is                  2
   GDM::PreWSS: working subspace size set to            2
   GDM::PrEWSS: # of linearly dependent vectors =            1
   GDM::PrEWSS: Max dev from orthonormality =   3.053113317719180E-016
   GDM::BFGS:   lowest Hinv e-value    0.253656103508912     
   GDM::BFGS:   highest Hinv e-value    1.57033706253625     
   GDM::      : max scaling in EWCs is          2.82842712474619     
   GDM::      : max rotation in step is        1.117424690725193E-008
   GDM::        grad.step =  -4.469576001888620E-016
   ------- Leaving GDM -- hopefully with a step in the right direction! --------
 
    2    -469.2858167954      1.34E-08  Gap = 55.80 eV  Normal BFGS step
 
   ------------------- Entering Geometric Direct Minimization ------------------
   GDM::trust : actual energy change is       -4.547473508864641E-013
   GDM::trust : predicted energy change was   -6.704364002832926E-016
   GDM::trust : updated trust radius is        0.330000000000000     
   GDM:         diagonal hessian shift is      0.000000000000000E+000
   GDM::PreWSS: input subspace size is                  3
   GDM::PreWSS: working subspace size set to            3
   GDM::PrEWSS: # of linearly dependent vectors =            2
   GDM::PrEWSS: Max dev from orthonormality =   2.498001805406602E-016
   GDM::BFGS:   lowest Hinv e-value    0.173688637314154     
   GDM::BFGS:   highest Hinv e-value    1.27344999315482     
   GDM::      : max scaling in EWCs is          2.82842712474619     
   GDM::      : max rotation in step is       -7.758531564201352E-009
   GDM::        grad.step =  -4.145741554488581E-016
   ------- Leaving GDM -- hopefully with a step in the right direction! --------
 
    3    -469.2858167954      1.19E-08  Gap = 55.80 eV  Normal BFGS step
 
   ------------------- Entering Geometric Direct Minimization ------------------
   GDM::trust : actual energy change is        1.705302565824240E-013
   GDM::trust : predicted energy change was   -6.218612331732874E-016
   GDM::trust : updated trust radius is        0.108900000000000     
   GDM::WARNING energy changes are now smaller than effective accuracy.
   GDM::        calculation will continue, but THRESH should be increased
   GDM::        or SCF_CONVERGENCE decreased.
   GDM::        effective_thresh =   3.300000000000000E-010
   GDM:         diagonal hessian shift is      0.000000000000000E+000
   GDM::PreWSS: input subspace size is                  4
   GDM::PreWSS: working subspace size set to            4
   GDM::PrEWSS: # of linearly dependent vectors =            3
   GDM::PrEWSS: Max dev from orthonormality =   1.686151218649456E-015
   GDM::BFGS:   lowest Hinv e-value    0.186522711279335     
   GDM::BFGS:   highest Hinv e-value    1.37078162711519     
   GDM::      : max scaling in EWCs is          2.82842712474619     
   GDM::      : max rotation in step is       -2.897432198032762E-009
   GDM::        grad.step =  -4.721750896060531E-016
   ------- Leaving GDM -- hopefully with a step in the right direction! --------
 
    4    -469.2858167954      6.92E-09 Convergence criterion met
 ---------------------------------------
 One-Electron    Energy = -1312.6929118551
 Total Coulomb   Energy =   578.1475475682
 Alpha Exchange  Energy =    -5.3579581731
 Beta  Exchange  Energy =    -5.0190547205
 DFT   Exchange  Energy =   -41.6569918859
 DFT Correlation Energy =    -2.8522341407
 Nuclear Repu.   Energy =   320.1457864117
 Nuclear Attr.   Energy = -1735.2729630848
 Kinetic         Energy =   422.5800512297
 <S^2> = 2.0281
 SCF time:  CPU 25.37 s  wall 3.72 s
 SCF   energy in the final basis set = -469.2858167954
 Total energy in the final basis set = -469.2858167954
 
 --------------------------------------------------------------
 
                    Orbital Energies (a.u.)
 --------------------------------------------------------------
 
 Alpha MOs
 -- Occupied --
-19.170 -19.170 -19.170 -19.170 -19.165  -2.053  -2.053  -1.307
 -1.307  -1.297  -1.283  -1.254  -1.254  -0.951  -0.911  -0.885
 -0.879  -0.879  -0.453  -0.427  -0.427  -0.397  -0.388  -0.382
 -0.382  -0.375  -0.375  -0.365  -0.345  -0.345  -0.333  -0.310
 -0.310
 -- Virtual --
 -0.124  -0.110  -0.035  -0.035  -0.011  -0.006  -0.006  -0.001
  0.009   0.020   0.028   0.028   0.031   0.083   0.086   0.086
  0.086   0.111   0.111   0.123   0.150   0.156   0.162   0.176
  0.184   0.187   0.187   0.193   0.208   0.219   0.219   0.223
  0.226   0.226   0.235   0.255   0.256   0.256   0.269   0.272
  0.272   0.285   0.317   0.337   0.337   0.350   0.379   0.411
  0.453   0.453   0.768   0.768   0.787   0.821   1.136   1.137
  1.146   1.153   1.153   1.154   1.169   1.169   1.197   1.197
  1.212   1.231   1.231   1.254   1.513   1.603   1.683   1.683
  1.707   1.707   1.723   1.744   1.747   1.748   1.750   1.773
  1.773   1.777   1.778   1.791   1.791   1.815   1.831   1.831
  1.841   1.843   1.851   1.891   1.891   1.944   1.988   2.017
  2.160   2.160   2.198  14.875  21.290
 
 Beta MOs
 -- Occupied --
-19.161 -19.157 -19.157 -19.157 -19.157  -2.051  -2.051  -1.302
 -1.302  -1.291  -1.277  -1.251  -1.251  -0.932  -0.876  -0.858
 -0.847  -0.847  -0.428  -0.397  -0.397  -0.385  -0.371  -0.370
 -0.366  -0.343  -0.343  -0.310  -0.310  -0.297  -0.297
 -- Virtual --
 -0.238  -0.215  -0.119  -0.106  -0.033  -0.033  -0.009  -0.004
 -0.004   0.001   0.011   0.021   0.031   0.031   0.032   0.088
  0.089   0.093   0.093   0.112   0.112   0.131   0.153   0.156
  0.164   0.178   0.191   0.191   0.192   0.200   0.214   0.221
  0.221   0.227   0.227   0.227   0.236   0.258   0.258   0.258
  0.276   0.280   0.280   0.288   0.317   0.341   0.341   0.353
  0.383   0.413   0.454   0.454   0.771   0.771   0.791   0.826
  1.144   1.145   1.164   1.164   1.180   1.180   1.184   1.194
  1.209   1.209   1.221   1.254   1.254   1.262   1.525   1.616
  1.707   1.707   1.720   1.720   1.742   1.748   1.764   1.771
  1.772   1.781   1.781   1.782   1.796   1.815   1.815   1.822
  1.851   1.856   1.856   1.856   1.860   1.902   1.902   1.964
  2.018   2.049   2.183   2.183   2.211  14.875  21.290
 --------------------------------------------------------------
 
          Ground-State Mulliken Net Atomic Charges

     Atom                 Charge (a.u.)    Spin (a.u.)
  --------------------------------------------------------
      1 Zr                    1.561641      -0.019543
      2 O                    -0.481397       0.473983
      3 O                    -0.481397       0.473983
      4 O                    -1.197692       0.143152
      5 Zr                    1.561641      -0.019543
      6 O                    -0.481397       0.473983
      7 O                    -0.481397       0.473983
  --------------------------------------------------------
  Sum of atomic charges =     0.000000
  Sum of spin   charges =     2.000000

 -----------------------------------------------------------------
                    Cartesian Multipole Moments
 -----------------------------------------------------------------
    Charge (ESU x 10^10)
                 0.0000
    Dipole Moment (Debye)
         X       0.0000      Y       0.0000      Z       0.0000
       Tot       0.0000
    Quadrupole Moments (Debye-Ang)
        XX     -70.3151     XY       0.0000     YY     -70.3151
        XZ       0.0000     YZ       0.0000     ZZ     -98.3297
    Octopole Moments (Debye-Ang^2)
       XXX       0.0000    XXY       0.0000    XYY       0.0000
       YYY       0.0000    XXZ      33.7383    XYZ       0.0000
       YYZ     -33.7383    XZZ       0.0000    YZZ       0.0000
       ZZZ       0.0000
    Hexadecapole Moments (Debye-Ang^3)
      XXXX    -226.9935   XXXY       0.0000   XXYY     -74.0325
      XYYY       0.0000   YYYY    -226.9935   XXXZ       0.0000
      XXYZ       0.0000   XYYZ       0.0000   YYYZ       0.0000
      XXZZ    -440.9911   XYZZ       0.0000   YYZZ    -440.9911
      XZZZ       0.0000   YZZZ       0.0000   ZZZZ   -2536.4033
 -----------------------------------------------------------------
 Calculating analytic gradient of the SCF energy
 Gradient of SCF Energy
            1           2           3           4           5           6
    1   0.0000000  -0.0000000   0.0000000  -0.0000000   0.0000000  -0.1016700
    2  -0.0000000  -0.1016702   0.1016698   0.0000002   0.0000002   0.0000000
    3   0.0859741  -0.0718939  -0.0718936   0.0000262  -0.0860013   0.0718941
            7
    1   0.1016700
    2   0.0000000
    3   0.0718943
 Max gradient component =       1.017E-01
 RMS gradient           =       6.048E-02
 Gradient time:  CPU 19.98 s  wall 3.05 s
 Geometry Optimization Parameters
   NAtoms,    NIC,     NZ,  NCons,   NDum,   NFix, NCnnct, MaxDiis
        7      31       0       0       0       0       0       0


** GEOMETRY OPTIMIZATION IN DELOCALIZED INTERNAL COORDINATES **
   Searching for a Minimum

   Optimization Cycle:   1

                       Coordinates (Angstroms)
     ATOM                X               Y               Z
      1  Zr        0.0000000000    0.0000000000    1.9128500000
      2  O         0.0000000000    1.4365900000    2.8594500000
      3  O         0.0000000000   -1.4365900000    2.8594500000
      4  O         0.0000000000    0.0000000000    0.0000000000
      5  Zr        0.0000000000    0.0000000000   -1.9128500000
      6  O         1.4365900000    0.0000000000   -2.8594500000
      7  O        -1.4365900000    0.0000000000   -2.8594500000
   Point Group: c1    Number of degrees of freedom:    15


   Energy is   -469.285816795


 Attempting to Generate Delocalized Internal Coordinates

 15 Hessian modes will be used to form the next step
  Hessian Eigenvalues:
     0.002000    0.002000    0.002000    0.189186    0.189186    0.200000
[...]
   GDM::trust : updated trust radius is        0.108900000000000     
   GDM::WARNING energy changes are now smaller than effective accuracy.
   GDM::        calculation will continue, but THRESH should be increased
   GDM::        or SCF_CONVERGENCE decreased.
   GDM::        effective_thresh =   1.324999871626931E-008
   GDM:         diagonal hessian shift is      0.000000000000000E+000
   GDM::PreWSS: input subspace size is                 19
   GDM::PreWSS: working subspace size set to           18
   GDM::PrEWSS: # of linearly dependent vectors =           14
   GDM::PrEWSS: Max dev from orthonormality =   1.740575739095362E-011
   GDM::BFGS:   lowest Hinv e-value    0.196420189883279     
   GDM::BFGS:   highest Hinv e-value    7.03510203642219     
   GDM::      : max scaling in EWCs is          2.17784838774466     
   GDM::      : max rotation in step is        2.582018766508474E-007
   GDM::        grad.step =  -8.817072083747226E-014
   ------- Leaving GDM -- hopefully with a step in the right direction! --------
 
   22    -469.4097097144      3.73E-08  Gap = 40.32 eV  Normal BFGS step
 
   ------------------- Entering Geometric Direct Minimization ------------------
   GDM::trust : actual energy change is        3.410605131648481E-013
   GDM::trust : predicted energy change was   -1.322560812562083E-013
   GDM::trust : updated trust radius is        0.108900000000000     
   GDM::WARNING energy changes are now smaller than effective accuracy.
   GDM::        calculation will continue, but THRESH should be increased
   GDM::        or SCF_CONVERGENCE decreased.
   GDM::        effective_thresh =   1.324999871626931E-008
   GDM:         diagonal hessian shift is      0.000000000000000E+000
   GDM::PreWSS: input subspace size is                 19
   GDM::PreWSS: working subspace size set to           18
   GDM::PrEWSS: # of linearly dependent vectors =           14
   GDM::PrEWSS: Max dev from orthonormality =   1.324754108494863E-012
   GDM::BFGS:   lowest Hinv e-value    0.196255119452180     
   GDM::BFGS:   highest Hinv e-value    7.07087070871028     
   GDM::      : max scaling in EWCs is          2.17784831261400     
   GDM::      : max rotation in step is        2.526333041038201E-008
   GDM::        grad.step =  -4.757217552482571E-015
   ------- Leaving GDM -- hopefully with a step in the right direction! --------
 
   23    -469.4097097144      1.43E-08  Gap = 40.32 eV  Normal BFGS step
 
   ------------------- Entering Geometric Direct Minimization ------------------
   GDM::trust : actual energy change is        6.821210263296962E-013
   GDM::trust : predicted energy change was   -7.135826328723854E-015
   GDM::trust : updated trust radius is        0.108900000000000     
   GDM::WARNING energy changes are now smaller than effective accuracy.
   GDM::        calculation will continue, but THRESH should be increased
   GDM::        or SCF_CONVERGENCE decreased.
   GDM::        effective_thresh =   1.324999871626931E-008
   GDM:         diagonal hessian shift is      0.000000000000000E+000
   GDM::PreWSS: input subspace size is                 19
   GDM::PreWSS: working subspace size set to           18
   GDM::PrEWSS: # of linearly dependent vectors =           13
   GDM::PrEWSS: Max dev from orthonormality =   4.493898309032573E-012
   GDM::BFGS:   lowest Hinv e-value    0.197367686636421     
   GDM::BFGS:   highest Hinv e-value    7.07332835008490     
   GDM::      : max scaling in EWCs is          2.17784840931528     
   GDM::      : max rotation in step is       -1.876451199013123E-008
   GDM::        grad.step =  -4.378270700666739E-015
   ------- Leaving GDM -- hopefully with a step in the right direction! --------
 
   24    -469.4097097144      2.56E-08  Gap = 40.32 eV  Normal BFGS step
 
   ------------------- Entering Geometric Direct Minimization ------------------
   GDM::trust : actual energy change is       -1.023181539494544E-012
   GDM::trust : predicted energy change was   -6.567406051000105E-015
   GDM::trust : updated trust radius is        0.330000000000000     
   GDM:         diagonal hessian shift is      0.000000000000000E+000
   GDM::PreWSS: input subspace size is                 19
   GDM::PreWSS: working subspace size set to           18
   GDM::PrEWSS: # of linearly dependent vectors =           12
   GDM::PrEWSS: Max dev from orthonormality =   8.295051971696221E-011
   GDM::BFGS:   lowest Hinv e-value    0.194402780762061     
   GDM::BFGS:   highest Hinv e-value    7.27504086874070     
   GDM::      : max scaling in EWCs is          2.17784821846833     
   GDM::      : max rotation in step is        1.739151663452387E-008
   GDM::        grad.step =  -4.437140107502924E-015
   ------- Leaving GDM -- hopefully with a step in the right direction! --------
 
   25    -469.4097097144      2.76E-08  Gap = 40.32 eV  Normal BFGS step
 
   ------------------- Entering Geometric Direct Minimization ------------------
   GDM::trust : actual energy change is        2.273736754432321E-013
   GDM::trust : predicted energy change was   -6.655710161254385E-015
   GDM::trust : updated trust radius is        0.108900000000000     
   GDM::WARNING energy changes are now smaller than effective accuracy.
   GDM::        calculation will continue, but THRESH should be increased
   GDM::        or SCF_CONVERGENCE decreased.
   GDM::        effective_thresh =   1.324999871626931E-008
   GDM:         diagonal hessian shift is      0.000000000000000E+000
   GDM::PreWSS: input subspace size is                 19
   GDM::PreWSS: working subspace size set to           18
   GDM::PrEWSS: # of linearly dependent vectors =           12
   GDM::PrEWSS: Max dev from orthonormality =   1.837950191346804E-011
   GDM::BFGS:   lowest Hinv e-value    0.214765906386691     
   GDM::BFGS:   highest Hinv e-value    7.66351881487365     
   GDM::      : max scaling in EWCs is          2.17784834992775     
   GDM::      : max rotation in step is        1.081150008318953E-008
   GDM::        grad.step =  -7.949089168093552E-016
   ------- Leaving GDM -- hopefully with a step in the right direction! --------
 
   26    -469.4097097144      3.71E-09 Convergence criterion met
 ---------------------------------------
 One-Electron    Energy = -1287.0730298908
 Total Coulomb   Energy =   565.3514717659
 Alpha Exchange  Energy =    -5.3186081645
 Beta  Exchange  Energy =    -4.9987210464
 DFT   Exchange  Energy =   -41.4025453062
 DFT Correlation Energy =    -2.8245004385
 Nuclear Repu.   Energy =   306.8562233662
 Nuclear Attr.   Energy = -1707.8370345225
 Kinetic         Energy =   420.7640046317
 <S^2> = 2.0416
 SCF time:  CPU 169.49 s  wall 15.97 s
 SCF   energy in the final basis set = -469.4097097144
 Total energy in the final basis set = -469.4097097144
 
 --------------------------------------------------------------
 
                    Orbital Energies (a.u.)
 --------------------------------------------------------------
 
 Alpha MOs
 -- Occupied --
-19.200 -19.200 -19.151 -19.150 -19.150  -2.062  -2.062  -1.284
 -1.283  -1.274  -1.270  -1.269  -1.264  -0.935  -0.933  -0.903
 -0.874  -0.872  -0.417  -0.410  -0.398  -0.383  -0.370  -0.366
 -0.360  -0.351  -0.342  -0.335  -0.335  -0.331  -0.327  -0.314
 -0.309
 -- Virtual --
 -0.122  -0.114  -0.072  -0.051  -0.041  -0.035  -0.014  -0.002
  0.000   0.000   0.013   0.024   0.026   0.032   0.039   0.042
  0.053   0.071   0.093   0.124   0.151   0.161   0.167   0.174
  0.179   0.185   0.187   0.193   0.199   0.216   0.217   0.220
  0.225   0.232   0.238   0.238   0.241   0.248   0.255   0.262
  0.280   0.290   0.293   0.314   0.327   0.357   0.358   0.378
  0.387   0.435   0.738   0.776   0.831   0.884   1.117   1.117
  1.139   1.152   1.176   1.178   1.190   1.191   1.204   1.212
  1.218   1.230   1.256   1.285   1.490   1.630   1.664   1.669
  1.700   1.704   1.731   1.746   1.758   1.759   1.759   1.769
  1.780   1.786   1.790   1.804   1.809   1.820   1.821   1.836
  1.837   1.840   1.845   1.864   1.867   1.894   1.924   1.930
  2.033   2.040   2.113  11.359  16.710
 
 Beta MOs
 -- Occupied --
-19.178 -19.178 -19.151 -19.143 -19.143  -2.065  -2.065  -1.286
 -1.285  -1.276  -1.273  -1.272  -1.266  -0.905  -0.869  -0.867
 -0.854  -0.853  -0.405  -0.374  -0.366  -0.350  -0.343  -0.331
 -0.328  -0.324  -0.323  -0.315  -0.314  -0.305  -0.295
 -- Virtual --
 -0.189  -0.189  -0.123  -0.115  -0.072  -0.050  -0.040  -0.034
 -0.013   0.001   0.006   0.010   0.016   0.026   0.030   0.040
  0.043   0.044   0.054   0.071   0.094   0.125   0.152   0.164
  0.170   0.176   0.181   0.191   0.194   0.197   0.202   0.218
  0.224   0.226   0.228   0.233   0.238   0.239   0.243   0.250
  0.258   0.265   0.282   0.292   0.293   0.315   0.329   0.357
  0.359   0.379   0.388   0.439   0.741   0.779   0.835   0.886
  1.152   1.160   1.177   1.184   1.191   1.194   1.196   1.198
  1.221   1.226   1.226   1.249   1.263   1.291   1.492   1.645
  1.688   1.690   1.712   1.720   1.746   1.773   1.785   1.789
  1.793   1.799   1.802   1.813   1.820   1.827   1.827   1.838
  1.838   1.854   1.855   1.860   1.865   1.879   1.879   1.908
  1.943   1.955   2.044   2.056   2.122  11.360  16.710
 --------------------------------------------------------------
 
          Ground-State Mulliken Net Atomic Charges

     Atom                 Charge (a.u.)    Spin (a.u.)
  --------------------------------------------------------
      1 Zr                    1.660121      -0.163029
      2 O                    -0.552799       0.286329
      3 O                    -0.524189       0.877021
      4 O                    -1.165710      -0.000684
      5 Zr                    1.659378      -0.162958
      6 O                    -0.552790       0.286220
      7 O                    -0.524012       0.877101
  --------------------------------------------------------
  Sum of atomic charges =     0.000000
  Sum of spin   charges =     2.000000

 -----------------------------------------------------------------
                    Cartesian Multipole Moments
 -----------------------------------------------------------------
    Charge (ESU x 10^10)
                 0.0000
    Dipole Moment (Debye)
         X       0.8997      Y       0.9807      Z      -0.0539
       Tot       1.3320
    Quadrupole Moments (Debye-Ang)
        XX     -69.2964     XY     -14.0571     YY     -70.8346
        XZ      17.5033     YZ     -16.7474     ZZ     -92.6732
    Octopole Moments (Debye-Ang^2)
       XXX      -5.3054    XXY      -2.0939    XYY      -2.0195
       YYY      -5.7818    XXZ      21.5364    XYZ       1.1276
       YYZ     -21.5549    XZZ       3.8557    YZZ       4.8937
       ZZZ      -0.6612
    Hexadecapole Moments (Debye-Ang^3)
      XXXX    -258.8408   XXXY     -78.0389   XXYY     -93.2392
      XYYY     -78.7876   YYYY    -274.8689   XXXZ      -6.8425
      XXYZ       4.8875   XYYZ      -6.6972   YYYZ       2.0443
      XXZZ    -444.6979   XYZZ    -122.3774   YYZZ    -457.4086
      XZZZ      40.4391   YZZZ     -43.0590   ZZZZ   -2432.2817
 -----------------------------------------------------------------
 Calculating analytic gradient of the SCF energy
 Gradient of SCF Energy
            1           2           3           4           5           6
    1  -0.0000325   0.0000059   0.0000306   0.0000035   0.0000030  -0.0000149
    2   0.0000574  -0.0000513   0.0000210   0.0000046  -0.0000592  -0.0000012
    3   0.0000099  -0.0000090  -0.0000324   0.0000243  -0.0000030   0.0000175
            7
    1   0.0000044
    2   0.0000288
    3  -0.0000073
 Max gradient component =       5.920E-05
 RMS gradient           =       2.690E-05
 Gradient time:  CPU 21.37 s  wall 3.27 s
 Geometry Optimization Parameters
   NAtoms,    NIC,     NZ,  NCons,   NDum,   NFix, NCnnct, MaxDiis
        7      31       0       0       0       0       0       0

 Cartesian Hessian Update
 Hessian Updated using BFGS Update


** GEOMETRY OPTIMIZATION IN DELOCALIZED INTERNAL COORDINATES **
   Searching for a Minimum

   Optimization Cycle:  37

                       Coordinates (Angstroms)
     ATOM                X               Y               Z
      1  Zr        0.4608547867   -0.2261194591    1.9238800482
      2  O         0.5232227830    1.3717848159    2.7523287728
      3  O        -0.9200488622   -1.1967727516    2.9215193674
      4  O         0.0098657714    0.0258464913   -0.0004061081
      5  Zr       -0.2586804317    0.4440283483   -1.9293823666
      6  O         1.3383359985    0.5759499496   -2.7514813383
      7  O        -1.1535500458   -0.9947173944   -2.9164583755
   Point Group: c1    Number of degrees of freedom:    15


   Energy is   -469.409709714

 Hessian Updated using BFGS Update

 15 Hessian modes will be used to form the next step
  Hessian Eigenvalues:
     0.000753    0.005595    0.033228    0.039986    0.082891    0.097800
     0.124034    0.145891    0.202542    0.217064    0.239869    0.263222
     0.304672    0.393176    0.490541

 Minimum Search - Taking Simple RFO Step
 Searching for Lamda that Minimizes Along All modes
 Value Taken    Lamda =   0.00000000
 Step Taken.  Stepsize is  0.003055

                             Maximum     Tolerance    Cnvgd?
         Gradient           0.000086      0.000300     YES
         Displacement       0.002351      0.001200      NO
         Energy change     -0.000001      0.000001     YES


                       Distance Matrix (Angstroms)
             Zr(  1)   O (  2)   O (  3)   O (  4)   Zr(  5)   O (  6)
   O (  2)  1.800976
   O (  3)  1.960701  2.951126
   O (  4)  1.992424  3.106869  3.301089
   Zr(  5)  3.976740  4.836375  5.163418  1.991970
   O (  6)  4.824136  5.620470  6.358127  3.104168  1.801031
   O (  7)  5.160031  6.367656  5.846138  3.301280  1.960893  2.950205

 
 Final energy is   -469.409709714418     


 ******************************
 **  OPTIMIZATION CONVERGED  **
 ******************************

                       Coordinates (Angstroms)
     ATOM                X               Y               Z
      1  Zr        0.4608547867   -0.2261194591    1.9238800482
      2  O         0.5232227830    1.3717848159    2.7523287728
      3  O        -0.9200488622   -1.1967727516    2.9215193674
      4  O         0.0098657714    0.0258464913   -0.0004061081
      5  Zr       -0.2586804317    0.4440283483   -1.9293823666
      6  O         1.3383359985    0.5759499496   -2.7514813383
      7  O        -1.1535500458   -0.9947173944   -2.9164583755

Z-matrix Print:
$molecule
0 3
Zr
O  1 1.800976
O  1 1.960701 2 103.271596
O  1 1.992424 2 109.871054 3 -121.087623 0
Zr 4 1.991970 1 172.896022 2 -50.846700 0
O  5 1.801031 4 109.746513 1 -42.465999 0
O  5 1.960893 4 113.263060 1 -157.220836 0
$end

 
 --------------------------------------------------------------
 
                    Orbital Energies (a.u.)
 --------------------------------------------------------------
 
 Alpha MOs
 -- Occupied --
-19.200 -19.200 -19.151 -19.150 -19.150  -2.062  -2.062  -1.284
 -1.283  -1.274  -1.270  -1.269  -1.264  -0.935  -0.933  -0.903
 -0.874  -0.872  -0.417  -0.410  -0.398  -0.383  -0.370  -0.366
 -0.360  -0.351  -0.342  -0.335  -0.335  -0.331  -0.327  -0.314
 -0.309
 -- Virtual --
 -0.122  -0.114  -0.072  -0.051  -0.041  -0.035  -0.014  -0.002
  0.000   0.000   0.013   0.024   0.026   0.032   0.039   0.042
  0.053   0.071   0.093   0.124   0.151   0.161   0.167   0.174
  0.179   0.185   0.187   0.193   0.199   0.216   0.217   0.220
  0.225   0.232   0.238   0.238   0.241   0.248   0.255   0.262
  0.280   0.290   0.293   0.314   0.327   0.357   0.358   0.378
  0.387   0.435   0.738   0.776   0.831   0.884   1.117   1.117
  1.139   1.152   1.176   1.178   1.190   1.191   1.204   1.212
  1.218   1.230   1.256   1.285   1.490   1.630   1.664   1.669
  1.700   1.704   1.731   1.746   1.758   1.759   1.759   1.769
  1.780   1.786   1.790   1.804   1.809   1.820   1.821   1.836
  1.837   1.840   1.845   1.864   1.867   1.894   1.924   1.930
  2.033   2.040   2.113  11.359  16.710
 
 Beta MOs
 -- Occupied --
-19.178 -19.178 -19.151 -19.143 -19.143  -2.065  -2.065  -1.286
 -1.285  -1.276  -1.273  -1.272  -1.266  -0.905  -0.869  -0.867
 -0.854  -0.853  -0.405  -0.374  -0.366  -0.350  -0.343  -0.331
 -0.328  -0.324  -0.323  -0.315  -0.314  -0.305  -0.295
 -- Virtual --
 -0.189  -0.189  -0.123  -0.115  -0.072  -0.050  -0.040  -0.034
 -0.013   0.001   0.006   0.010   0.016   0.026   0.030   0.040
  0.043   0.044   0.054   0.071   0.094   0.125   0.152   0.164
  0.170   0.176   0.181   0.191   0.194   0.197   0.202   0.218
  0.224   0.226   0.228   0.233   0.238   0.239   0.243   0.250
  0.258   0.265   0.282   0.292   0.293   0.315   0.329   0.357
  0.359   0.379   0.388   0.439   0.741   0.779   0.835   0.886
  1.152   1.160   1.177   1.184   1.191   1.194   1.196   1.198
  1.221   1.226   1.226   1.249   1.263   1.291   1.492   1.645
  1.688   1.690   1.712   1.720   1.746   1.773   1.785   1.789
  1.793   1.799   1.802   1.813   1.820   1.827   1.827   1.838
  1.838   1.854   1.855   1.860   1.865   1.879   1.879   1.908
  1.943   1.955   2.044   2.056   2.122  11.360  16.710
 --------------------------------------------------------------
 
          Ground-State Mulliken Net Atomic Charges

     Atom                 Charge (a.u.)    Spin (a.u.)
  --------------------------------------------------------
      1 Zr                    1.660121      -0.163029
      2 O                    -0.552799       0.286329
      3 O                    -0.524189       0.877021
      4 O                    -1.165710      -0.000684
      5 Zr                    1.659378      -0.162958
      6 O                    -0.552790       0.286220
      7 O                    -0.524012       0.877101
  --------------------------------------------------------
  Sum of atomic charges =     0.000000
  Sum of spin   charges =     2.000000

 -----------------------------------------------------------------
                    Cartesian Multipole Moments
 -----------------------------------------------------------------
    Charge (ESU x 10^10)
                 0.0000
    Dipole Moment (Debye)
         X       0.8997      Y       0.9807      Z      -0.0539
       Tot       1.3320
    Quadrupole Moments (Debye-Ang)
        XX     -69.2964     XY     -14.0571     YY     -70.8346
        XZ      17.5033     YZ     -16.7474     ZZ     -92.6732
    Octopole Moments (Debye-Ang^2)
       XXX      -5.3054    XXY      -2.0939    XYY      -2.0195
       YYY      -5.7818    XXZ      21.5364    XYZ       1.1276
       YYZ     -21.5549    XZZ       3.8557    YZZ       4.8937
       ZZZ      -0.6612
    Hexadecapole Moments (Debye-Ang^3)
      XXXX    -258.8408   XXXY     -78.0389   XXYY     -93.2392
      XYYY     -78.7876   YYYY    -274.8689   XXXZ      -6.8425
      XXYZ       4.8875   XYYZ      -6.6972   YYYZ       2.0443
      XXZZ    -444.6979   XYZZ    -122.3774   YYZZ    -457.4086
      XZZZ      40.4391   YZZZ     -43.0590   ZZZZ   -2432.2817
 -----------------------------------------------------------------
Archival summary:
1\1\hpc3919\OPT\ProcedureUnspecified\BasisUnspecified\r25(+,3)\liqiuy\FriJan1720:17:012020FriJan1720:17:012020\0\\#,OPT,ProcedureUnspecified,BasisUnspecified,\\56,3\Zr\O,1,1.80098\O,1,1.9607,2,103.272\O,1,1.99242,2,109.871,3,-121.088,0\Zr,4,1.99197,1,172.896,2,-50.8467,0\O,5,1.80103,4,109.747,1,-42.466,0\O,5,1.96089,4,113.263,1,-157.221,0\\\@

 Total job time:  949.80s(wall), 9022.18s(cpu) 
 Fri Jan 17 20:17:02 2020

        *************************************************************
        *                                                           *
        *  Thank you very much for using Q-Chem.  Have a nice day.  *
        *                                                           *
        *************************************************************


0 sent ACK to 0 
now end server 0 ... 
cleanup process ... done
