
Running Job 1 of 2 ZrOx.in
qchem ZrOx.in_2439.0 /tmp/5732860.priya/ZrOx.save/ 1
/usr/usc/qchem/4.4/bin/mpi/mpirun_qchem -machinefile /usr/usc/qchem/4.4/bin/mpi/machines -np 1 /usr/usc/qchem/4.4/exe/qcprog.exe ZrOx.in_2439.0 /tmp/5732860.priya/ZrOx.save/

Process 0 of 1 is on hpc3918.hpcc.usc.edu - thread support 0
initial socket setup ...start
initial socket setup ...done 
now start server 0 ... 
Check license passed

                  Welcome to Q-Chem
     A Quantum Leap Into The Future Of Chemistry


 Q-Chem 4.4, Q-Chem, Inc., Pleasanton, CA (2016)

 Y. Shao,  Z. Gan,  E. Epifanovsky,  A. T. B. Gilbert,  M. Wormit,  
 J. Kussmann,  A. W. Lange,  A. Behn,  J. Deng,  X. Feng,  D. Ghosh,  
 M. Goldey,  P. R. Horn,  L. D. Jacobson,  I. Kaliman,  F.Rob,  
 R. Z. Khaliullin,  T. Kus,  A. Landau,  J. Liu,  E. I. Proynov,  Y. M. Rhee,  
 R. M. Richard,  M. A. Rohrdanz,  R. P. Steele,  E. J. Sundstrom,  
 H. L. Woodcock III,  P. M. Zimmerman,  D. Zuev,  B. Albrecht,  E. Alguire,  
 B. Austin,  S. A. Baeppler,  G. J. O. Beran,  Y. A. Bernard,  E. Berquist,  
 K. Brandhorst,  K. B. Bravaya,  S. T. Brown,  D. Casanova,  C.-M. Chang,  
 Y. Chen,  S. H. Chien,  K. D. Closser,  M. P. Coons,  D. L. Crittenden,  
 S. Dasgupta,  M. Diedenhofen,  R. A. DiStasio Jr.,  H. Do,  A. D. Dutoi,  
 R. G. Edgar,  P.-T. Fang,  S. Fatehi,  Q. Feng,  L. Fusti-Molnar,  
 A. Ghysels,  A. Golubeva-Zadorozhnaya,  J. Gomes,  A. Gunina,  
 M. W. D. Hanson-Heine,  P. H. P. Harbach,  A. W. Hauser,  E. G. Hohenstein,  
 Z. C. Holden,  K. Hui,  T.-C. Jagau,  H. Ji,  B. Kaduk,  K. Khistyaev,  
 Jaehoon Kim,  Jihan Kim,  R. A. King,  P. Klunzinger,  D. Kosenkov,  
 T. Kowalczyk,  C. M. Krauter,  A. Kunitsa,  K. U. Lao,  A. Laurent,  
 K. V. Lawler,  D. Lefrancois,  S. Lehtola,  S. V. Levchenko,  C. Y. Lin,  
 Y.-S. Lin,  F. Liu,  E. Livshits,  R. C. Lochan,  A. Luenser,  P. Manohar,  
 S. F. Manzer,  S.-P. Mao,  Y. Mao,  N. Mardirossian,  A. V. Marenich,  
 L. A. Martinez-Martinez,  S. A. Maurer,  N. J. Mayhall,  J.-M. Mewes,  
 A. F. Morrison,  K. Nanda,  C. M. Oana,  R. Olivares-Amaya,  D. P. O'Neill,  
 J. A. Parkhill,  T. M. Perrine,  R. Peverati,  P. A. Pieniazek,  F. Plasser,  
 A. Prociuk,  D. R. Rehn,  E. Rosta,  N. J. Russ,  N. Sergueev,  
 S. M. Sharada,  S. Sharma,  D. W. Small,  A. Sodt,  T. Stauch,  T. Stein,  
 D. Stuck,  Y.-C. Su,  A. J. W. Thom,  T. Tsuchimochi,  L. Vogt,  O. Vydrov,  
 T. Wang,  M. A. Watson,  J. Wenzel,  A. White,  C. F. Williams,  
 V. Vanovschi,  S. Yeganeh,  S. R. Yost,  Z.-Q. You,  I. Y. Zhang,  X. Zhang,  
 Y. Zhao,  B. R. Brooks,  G. K. L. Chan,  D. M. Chipman,  C. J. Cramer,  
 W. A. Goddard III,  M. S. Gordon,  W. J. Hehre,  A. Klamt,  
 H. F. Schaefer III,  M. W. Schmidt,  C. D. Sherrill,  D. G. Truhlar,  
 A. Warshel,  X. Xu,  A. Aspuru-Guzik,  R. Baer,  A. T. Bell,  N. A. Besley,  
 J.-D. Chai,  A. Dreuw,  B. D. Dunietz,  T. R. Furlani,  S. R. Gwaltney,  
 C.-P. Hsu,  Y. Jung,  J. Kong,  D. S. Lambrecht,  W. Liang,  C. Ochsenfeld,  
 V. A. Rassolov,  L. V. Slipchenko,  J. E. Subotnik,  T. Van Voorhis,  
 J. M. Herbert,  A. I. Krylov,  P. M. W. Gill,  M. Head-Gordon

 Contributors to earlier versions of Q-Chem not listed above: 
 R. D. Adamson,  J. Baker,  E. F. C. Byrd,  A. K. Chakraborty,  C.-L. Cheng,  
 H. Dachsel,  R. J. Doerksen,  G. Hawkins,  A. Heyden,  S. Hirata,  
 G. Kedziora,  F. J. Keil,  C. Kelley,  P. P. Korambath,  W. Kurlancheek,  
 A. M. Lee,  M. S. Lee,  D. Liotard,  I. Lotan,  P. E. Maslen,  N. Nair,  
 D. Neuhauser,  R. Olson,  B. Peters,  J. Ritchie,  N. E. Schultz,  
 N. Shenvi,  A. C. Simmonett,  K. S. Thanthiriwatte,  Q. Wu,  W. Zhang

 Please cite Q-Chem as follows:
 Y. Shao et al., Mol. Phys. 113, 184-215 (2015)
 DOI: 10.1080/00268976.2014.952696

 Q-Chem 4.4.1 for Intel X86 Linux

 Parts of Q-Chem use Armadillo 5.200.1 (Boston Tea Smuggler).
 http://arma.sourceforge.net/

 Q-Chem begins on Fri Jan 17 20:03:09 2020  

Host: 
0

     Scratch files written to /tmp/5732860.priya/ZrOx.save//
 Jul2716 11668_ 21447  21445 5558   
 Parallel job on  1  processors
Processing $rem in /usr/usc/qchem/4.4/config/preferences.
 MEM_TOTAL  2000 

Checking the input file for inconsistencies... 	...done.

--------------------------------------------------------------
User input:
--------------------------------------------------------------
$comment
--------------------------------------------------------
A SINGLE POINT DFT CALCULATION WITH BASIS SET PROJECTION
--------------------------------------------------------
$end

$molecule
0 3
Zr 0.00000 0.00000 -0.26977
O 0.00000 0.00000 1.40190
$end

$rem
JOBTYPE   SP
METHOD   B3LYP
BASIS   GEN
ECP   GEN
MAX_SCF_CYCLES   200
SCF_CONVERGENCE 8
SCF_ALGORITHM  DIIS_GDM
SCF_PRINT 1
PDB_PRINT 2
THRESH 14
VARTHRESH 14
INCDFT FALSE
SYMMETRY False
Sym_ignore True
SCF_ALGORITHM GDM
XC_GRID 000128000302
DFT_D           EMPIRICAL_GRIMME3
DFT_D3_S6       1000
DFT_D3_RS6     1261
DFT_D3_S8      1703
DFT_D3_3BODY    FALSE
$end

$basis
O
6-31+G**
****
S
6-31+G**
****
Zr
LanL2DZ
****
$end

$ecp
Zr
LanL2DZ
****
$end

--------------------------------------------------------------
 ----------------------------------------------------------------
             Standard Nuclear Orientation (Angstroms)
    I     Atom           X                Y                Z
 ----------------------------------------------------------------
    1      Zr      0.0000000000     0.0000000000    -0.2697700000
    2      O       0.0000000000     0.0000000000     1.4019000000
 ----------------------------------------------------------------
 Nuclear Repulsion Energy =    30.3893759871 hartrees
 There are       11 alpha and        9 beta electrons

 Q-Chem warning in module /home/scratch/svnadmin/11668_zgan/qchem/forms1/BasisType.C, line 1419:

 Setting pure/cartesian flag to 2111 for general basis


 Requested basis set is non-standard
 There are 13 shells and 40 basis functions

 Total QAlloc Memory Limit   2000 MB
 Mega-Array Size        61 MB
 MEM_STATIC part        62 MB

                       Distance Matrix (Angstroms)
             Zr(  1)
   O (  2)  1.671670
 
 A cutoff of  1.0D-14 yielded     91 shell pairs
 There are       877 function pairs (      1018 Cartesian)
 
 -------------------------------------------------------
 OpenMP Integral Computing Module                       
 Release: version 1.0, May 2013, Q-Chem Inc. Pittsburgh 
 -------------------------------------------------------
 Integral Job Info:
 Integral job number is                      11
 Integral operator is                         1
 short-range coefficients                     0
 long-range coefficients              100000000
 Omega coefficients                           0
 if combine SR and LR in K                    0
 Integral screening is                        0
 Integral computing path is                   2
 max size of driver memory is            800000
 size of driver memory is                593474
 size of scratch memory is             11771240
 max col of scratch BK array               1296
 max len of scratch array in speh3          155
 max len of scratch index in speh4           18
 max int batch size is                      520
 min int batch size is                       52
 fixed nKL is                                52
 max L of basis functions is                  2
 order of int derivative is                   0
 number of shells is                         13
 number of basis is                          43
 number of cartesian basis is                43
 number of contracted shell pairs            91
 number of primitive shell pairs            494
 maxK2 (contraction) of shell pair           36
 max number of K2 of shell pair               1
 max number of CS2 of shell pair              4
 max number of PS2 of shell pair             36
 mem total for path MDJ                   13132
 -------------------------------------------------------
 Requested basis set is non-standard
 Compound shells will be simplified
 There are 16 shells and 40 basis functions
 A cutoff of  1.0D-14 yielded    136 shell pairs
 There are       868 function pairs (      1009 Cartesian)
 Smallest overlap matrix eigenvalue = 4.65E-03

 Scale SEOQF with 1.000000e-01/1.000000e-01/1.000000e-01

 Standard Electronic Orientation quadrupole field applied
 Nucleus-field energy     =    -0.0000000018 hartrees
 Guess MOs from core Hamiltonian diagonalization
 An unrestricted hybrid HF-DFT SCF calculation will be
 performed using Geometric Direct Minimization
 Exchange:     0.2000 Hartree-Fock + 0.0800 Slater + 0.7200 B88
 Correlation:  0.1900 VWN1RPA + 0.8100 LYP
 Using Euler-Maclaurin-Lebedev (128,302) quadrature formula
 Dispersion:   Grimme D3
 SCF converges when RMS gradient is below 1.0E-08
 Maximum number of minimization steps = 200
 using 12 threads for integral computing 
 -------------------------------------------------------
 OpenMP BLAS3 based DFT computing Module                
 Release: version 1.0, May 2013, Q-Chem Inc. Pittsburgh 
 -------------------------------------------------------
 
   ------------------- Entering Geometric Direct Minimization ------------------
   GDM:         diagonal hessian shift is      0.000000000000000E+000
   GDM::PreWSS: input subspace size is                  1
   GDM::PreWSS: working subspace size set to            1
   GDM::PrEWSS: # of linearly dependent vectors =            0
   GDM::PrEWSS: Max dev from orthonormality =   1.110223024625157E-016
   GDM::BFGS:   lowest Hinv e-value     1.00000000000000     
   GDM::BFGS:   highest Hinv e-value    1.00000000000000     
   GDM::      : max scaling in EWCs is          1.41421356237309     
   GDM::      : max rotation in step is       -0.255132467908435     
   GDM::        grad.step =   -1.94378074340658     
   ------- Leaving GDM -- hopefully with a step in the right direction! --------
 
 ---------------------------------------
  Cycle       Energy        RMS Gradient
 ---------------------------------------
    1    -112.3972013488      3.22E+00  Gap = 0.00 eV  Descent step
 
   ------------------- Entering Geometric Direct Minimization ------------------
   GDM::trust : actual energy change is        -1.86607701749044     
   GDM::trust : predicted energy change was   -0.163350000000000     
   GDM::trust : updated trust radius is        0.330000000000000     
   GDM:         diagonal hessian shift is      0.000000000000000E+000
   GDM::PreWSS: input subspace size is                  2
   GDM::PreWSS: working subspace size set to            2
   GDM::PrEWSS: # of linearly dependent vectors =            0
   GDM::PrEWSS: Max dev from orthonormality =   3.302913498259841E-015
   GDM::BFGS:   lowest Hinv e-value    0.737897218093369     
   GDM::BFGS:   highest Hinv e-value    2.09920044033100     
   GDM::      : max scaling in EWCs is          1.41421356237309     
   GDM::      : max rotation in step is       -8.775248973619888E-002
   GDM::        grad.step =   -1.44447952856875     
   ------- Leaving GDM -- hopefully with a step in the right direction! --------
 
    2    -114.2632783663      1.39E+00  Gap = 0.00 eV  Descent step
 
   ------------------- Entering Geometric Direct Minimization ------------------
   GDM::trust : actual energy change is        -1.41771995493288     
   GDM::trust : predicted energy change was   -0.150484585585760     
   GDM::trust : updated trust radius is        0.330000000000000     
   GDM::search:  On step            1 .  The current bracket is:
       left   : x =  0.0000E+00, e =      -114.2632783663, g = -0.5797E+01
       current: x =  0.2492E+00, e =      -115.6809983213, g = -0.5535E+01
       right  : x =  0.1000E+04, e =      1000.0000000000, g =  0.1000E+04
       next   : x =  0.2492E+01
   GDM::      : max rotation in step is       -0.877524897361989     
   ------- Leaving GDM -- hopefully with a step in the right direction! --------
 
    3    -115.6809983213      4.55E-01  Gap = 0.00 eV  Line search: understep
 
   ------------------- Entering Geometric Direct Minimization ------------------
   GDM::trust : actual energy change is        -3.87888769356903     
   GDM::trust : predicted energy change was   -0.150484585585760     
   GDM::trust : updated trust radius is        0.330000000000000     
   GDM:         diagonal hessian shift is      0.000000000000000E+000
   GDM::PreWSS: input subspace size is                  3
   GDM::PreWSS: working subspace size set to            3
   GDM::PrEWSS: # of linearly dependent vectors =            0
   GDM::PrEWSS: Max dev from orthonormality =   5.502542865798432E-015
   GDM::BFGS:   lowest Hinv e-value    0.341441636631104     
   GDM::BFGS:   highest Hinv e-value    1.73850917060998     
   GDM::      : max scaling in EWCs is          1.41421356237309     
   GDM::      : max rotation in step is        0.188465316741078     
   GDM::        grad.step =   -1.26625015826193     
   ------- Leaving GDM -- hopefully with a step in the right direction! --------
 
    4    -118.1421660599      1.78E+00  Gap = 0.00 eV  Descent step
 
   ------------------- Entering Geometric Direct Minimization ------------------
   GDM::trust : actual energy change is        -1.15162089382196     
   GDM::trust : predicted energy change was   -0.251586642628653     
   GDM::trust : updated trust radius is        0.330000000000000     
   GDM:         diagonal hessian shift is      0.000000000000000E+000
   GDM::PreWSS: input subspace size is                  4
   GDM::PreWSS: working subspace size set to            4
   GDM::PrEWSS: # of linearly dependent vectors =            0
   GDM::PrEWSS: Max dev from orthonormality =   3.200911757872404E-014
   GDM::BFGS:   lowest Hinv e-value    0.478143706546912     
   GDM::BFGS:   highest Hinv e-value    1.94667440604590     
   GDM::      : max scaling in EWCs is          1.41421356237309     
   GDM::      : max rotation in step is        7.576586992169324E-002
   GDM::        grad.step =  -0.814390775376087     
   ------- Leaving GDM -- hopefully with a step in the right direction! --------
 
    5    -119.2937869537      9.31E-01  Gap = 0.00 eV  Descent step
 
   ------------------- Entering Geometric Direct Minimization ------------------
   GDM::trust : actual energy change is       -0.732837066240293     
   GDM::trust : predicted energy change was   -0.182186170791779     
   GDM::trust : updated trust radius is        0.330000000000000     
   GDM:         diagonal hessian shift is      0.000000000000000E+000
   GDM::PreWSS: input subspace size is                  5
   GDM::PreWSS: working subspace size set to            5
   GDM::PrEWSS: # of linearly dependent vectors =            0
   GDM::PrEWSS: Max dev from orthonormality =   1.704678065372889E-013
   GDM::BFGS:   lowest Hinv e-value    0.448414086261575     
   GDM::BFGS:   highest Hinv e-value    2.12855090976202     
   GDM::      : max scaling in EWCs is          2.82842712474619     
   GDM::      : max rotation in step is        0.350756998210722     
   GDM::        grad.step =  -0.671040630077768     
   ------- Leaving GDM -- hopefully with a step in the right direction! --------
 
    6    -120.0266240200      7.64E-01  Gap = 0.00 eV  Descent step
 
   ------------------- Entering Geometric Direct Minimization ------------------
   GDM::trust : actual energy change is       -0.614687412607964     
   GDM::trust : predicted energy change was   -0.161730833226376     
   GDM::trust : updated trust radius is        0.330000000000000     
   GDM:         diagonal hessian shift is      0.000000000000000E+000
   GDM::PreWSS: input subspace size is                  6
   GDM::PreWSS: working subspace size set to            6
   GDM::PrEWSS: # of linearly dependent vectors =            0
   GDM::PrEWSS: Max dev from orthonormality =   2.569923440720601E-013
   GDM::BFGS:   lowest Hinv e-value    0.388075037237386     
   GDM::BFGS:   highest Hinv e-value    2.23832261444725     
   GDM::      : max scaling in EWCs is          2.82842712474619     
   GDM::      : max rotation in step is        0.210030749322261     
   GDM::        grad.step =  -0.499615179551783     
   ------- Leaving GDM -- hopefully with a step in the right direction! --------
 
    7    -120.6413114326      5.25E-01  Gap = 0.00 eV  Descent step
 
   ------------------- Entering Geometric Direct Minimization ------------------
   GDM::trust : actual energy change is       -0.441721077555968     
   GDM::trust : predicted energy change was   -0.158240286680473     
   GDM::trust : updated trust radius is        0.330000000000000     
   GDM:         diagonal hessian shift is      0.000000000000000E+000
   GDM::PreWSS: input subspace size is                  7
   GDM::PreWSS: working subspace size set to            7
   GDM::PrEWSS: # of linearly dependent vectors =            0
   GDM::PrEWSS: Max dev from orthonormality =   6.136306740511799E-013
   GDM::BFGS:   lowest Hinv e-value    0.427089042628763     
   GDM::BFGS:   highest Hinv e-value    2.35255322445584     
   GDM::      : max scaling in EWCs is          2.82842712474619     
   GDM::      : max rotation in step is       -0.175101247987982     
   GDM::        grad.step =  -0.354743419042208     
   ------- Leaving GDM -- hopefully with a step in the right direction! --------
 
    8    -121.0830325101      3.77E-01  Gap = 0.00 eV  Descent step
 
   ------------------- Entering Geometric Direct Minimization ------------------
   GDM::trust : actual energy change is       -0.305467685683382     
   GDM::trust : predicted energy change was   -0.155339716305757     
   GDM::trust : updated trust radius is        0.330000000000000     
   GDM:         diagonal hessian shift is      0.000000000000000E+000
   GDM::PreWSS: input subspace size is                  8
   GDM::PreWSS: working subspace size set to            8
   GDM::PrEWSS: # of linearly dependent vectors =            0
   GDM::PrEWSS: Max dev from orthonormality =   7.385342337684619E-013
   GDM::BFGS:   lowest Hinv e-value    0.438394168904179     
   GDM::BFGS:   highest Hinv e-value    2.41677424687387     
   GDM::      : max scaling in EWCs is          2.82842712474619     
   GDM::      : max rotation in step is       -0.317623212653867     
   GDM::        grad.step =  -0.250955453878528     
   ------- Leaving GDM -- hopefully with a step in the right direction! --------
 
    9    -121.3885001958      2.59E-01  Gap = 0.00 eV  Descent step
 
   ------------------- Entering Geometric Direct Minimization ------------------
   GDM::trust : actual energy change is       -0.207582412376993     
   GDM::trust : predicted energy change was   -0.143492750732127     
   GDM::trust : updated trust radius is        0.330000000000000     
   GDM:         diagonal hessian shift is      0.000000000000000E+000
   GDM::PreWSS: input subspace size is                  9
   GDM::PreWSS: working subspace size set to            9
   GDM::PrEWSS: # of linearly dependent vectors =            0
   GDM::PrEWSS: Max dev from orthonormality =   9.125339373028396E-013
   GDM::BFGS:   lowest Hinv e-value    0.443201373701765     
   GDM::BFGS:   highest Hinv e-value    2.47462308911720     
   GDM::      : max scaling in EWCs is          2.82842712474619     
   GDM::      : max rotation in step is       -0.332614744901317     
   GDM::        grad.step =  -0.146909529023842     
   ------- Leaving GDM -- hopefully with a step in the right direction! --------
 
   10    -121.5960826082      2.05E-01  Gap = 0.00 eV  Descent step
 
   ------------------- Entering Geometric Direct Minimization ------------------
   GDM::trust : actual energy change is       -9.214948044532889E-002
   GDM::trust : predicted energy change was   -0.145707809108387     
   GDM::trust : updated trust radius is        0.330000000000000     
   GDM:         diagonal hessian shift is      0.000000000000000E+000
   GDM::PreWSS: input subspace size is                 10
   GDM::PreWSS: working subspace size set to           10
   GDM::PrEWSS: # of linearly dependent vectors =            0
   GDM::PrEWSS: Max dev from orthonormality =   1.621501544146753E-012
   GDM::BFGS:   lowest Hinv e-value    0.414436959584379     
   GDM::BFGS:   highest Hinv e-value    2.47906951502186     
   GDM::      : max scaling in EWCs is          2.82842712474619     
   GDM::      : max rotation in step is       -0.197638858676678     
   GDM::        grad.step =  -3.588639070155468E-002
   ------- Leaving GDM -- hopefully with a step in the right direction! --------
 
   11    -121.6882320886      5.77E-02  Gap = 0.00 eV  Normal BFGS step
 
   ------------------- Entering Geometric Direct Minimization ------------------
   GDM::trust : actual energy change is        3.091730516899815E-004
   GDM::trust : predicted energy change was   -5.382958605233203E-002
   GDM::trust : updated trust radius is        0.108900000000000     
   GDM::search:  On step            1 .  The current bracket is:
       left   : x =  0.0000E+00, e =      -121.6882320886, g = -0.1386E+00
       current: x =  0.2589E+00, e =      -121.6879229156, g =  0.1459E+00
       right  : x =  0.1000E+04, e =      1000.0000000000, g =  0.1000E+04
       next   : x =  0.1283E+00
   GDM::      : max rotation in step is       -9.797533958349809E-002
   ------- Leaving GDM -- hopefully with a step in the right direction! --------
 
   12    -121.6879229156      4.56E-02  Gap = 0.00 eV  Line search: overstep
 
   ------------------- Entering Geometric Direct Minimization ------------------
   GDM::trust : actual energy change is       -9.072031656941704E-003
   GDM::trust : predicted energy change was   -5.382958605233203E-002
   GDM::trust : updated trust radius is        0.108900000000000     
   GDM:         diagonal hessian shift is      0.000000000000000E+000
   GDM::PreWSS: input subspace size is                 11
   GDM::PreWSS: working subspace size set to           11
   GDM::PrEWSS: # of linearly dependent vectors =            0
   GDM::PrEWSS: Max dev from orthonormality =   3.396991021809015E-012
   GDM::BFGS:   lowest Hinv e-value    0.266264122757719     
   GDM::BFGS:   highest Hinv e-value    2.49162963719797     
   GDM::      : max scaling in EWCs is          2.82842712474619     
   GDM::      : max rotation in step is       -3.465304422315358E-002
   GDM::        grad.step =  -5.967552911997027E-003
   ------- Leaving GDM -- hopefully with a step in the right direction! --------
 
   13    -121.6973041203      2.70E-02  Gap = 0.00 eV  Normal BFGS step
 
   ------------------- Entering Geometric Direct Minimization ------------------
   GDM::trust : actual energy change is       -1.694671712968443E-003
   GDM::trust : predicted energy change was   -8.951329367995543E-003
   GDM::trust : updated trust radius is        0.330000000000000     
   GDM:         diagonal hessian shift is      0.000000000000000E+000
   GDM::PreWSS: input subspace size is                 12
   GDM::PreWSS: working subspace size set to           12
   GDM::PrEWSS: # of linearly dependent vectors =            0
   GDM::PrEWSS: Max dev from orthonormality =   2.067968019048294E-011
   GDM::BFGS:   lowest Hinv e-value    0.234165069236940     
   GDM::BFGS:   highest Hinv e-value    2.48168064355831     
   GDM::      : max scaling in EWCs is          2.82842712474619     
   GDM::      : max rotation in step is       -1.609956905811942E-002
   GDM::        grad.step =  -9.839448796865186E-004
   ------- Leaving GDM -- hopefully with a step in the right direction! --------
 
   14    -121.6989987920      1.51E-02  Gap = 0.00 eV  Normal BFGS step
 
   ------------------- Entering Geometric Direct Minimization ------------------
   GDM::trust : actual energy change is       -4.706135930803157E-004
   GDM::trust : predicted energy change was   -1.475917319529777E-003
   GDM::trust : updated trust radius is        0.330000000000000     
   GDM:         diagonal hessian shift is      0.000000000000000E+000
   GDM::PreWSS: input subspace size is                 13
   GDM::PreWSS: working subspace size set to           13
   GDM::PrEWSS: # of linearly dependent vectors =            0
   GDM::PrEWSS: Max dev from orthonormality =   2.303989429797149E-010
   GDM::BFGS:   lowest Hinv e-value    0.251121651451713     
   GDM::BFGS:   highest Hinv e-value    2.48497909004023     
   GDM::      : max scaling in EWCs is          2.82842712474619     
   GDM::      : max rotation in step is        5.399676242194339E-003
   GDM::        grad.step =  -4.499100163842523E-005
   ------- Leaving GDM -- hopefully with a step in the right direction! --------
 
   15    -121.6994694056      3.51E-03  Gap = 119.55 eV  Normal BFGS step
 
   ------------------- Entering Geometric Direct Minimization ------------------
   GDM::trust : actual energy change is       -1.279118154684511E-005
   GDM::trust : predicted energy change was   -6.748650245763784E-005
   GDM::trust : updated trust radius is        0.330000000000000     
   GDM:         diagonal hessian shift is      0.000000000000000E+000
   GDM::PreWSS: input subspace size is                 14
   GDM::PreWSS: working subspace size set to           14
   GDM::PrEWSS: # of linearly dependent vectors =            1
   GDM::PrEWSS: Max dev from orthonormality =   2.362349205142777E-011
   GDM::BFGS:   lowest Hinv e-value    0.236584588741504     
   GDM::BFGS:   highest Hinv e-value    2.48601041323990     
   GDM::      : max scaling in EWCs is          2.82842712474619     
   GDM::      : max rotation in step is        2.312296870506139E-003
   GDM::        grad.step =  -9.059710063670850E-006
   ------- Leaving GDM -- hopefully with a step in the right direction! --------
 
   16    -121.6994821968      1.22E-03  Gap = 119.55 eV  Normal BFGS step
 
   ------------------- Entering Geometric Direct Minimization ------------------
   GDM::trust : actual energy change is       -5.201439080337877E-006
   GDM::trust : predicted energy change was   -1.358956509550627E-005
   GDM::trust : updated trust radius is        0.330000000000000     
   GDM:         diagonal hessian shift is      0.000000000000000E+000
   GDM::PreWSS: input subspace size is                 15
   GDM::PreWSS: working subspace size set to           15
   GDM::PrEWSS: # of linearly dependent vectors =            2
   GDM::PrEWSS: Max dev from orthonormality =   6.924802051222478E-011
   GDM::BFGS:   lowest Hinv e-value    0.233914046470744     
   GDM::BFGS:   highest Hinv e-value    2.49240270651083     
   GDM::      : max scaling in EWCs is          2.82842712474619     
   GDM::      : max rotation in step is        3.546440619700468E-003
   GDM::        grad.step =  -1.639659643578822E-006
   ------- Leaving GDM -- hopefully with a step in the right direction! --------
 
   17    -121.6994873982      9.48E-04  Gap = 119.55 eV  Normal BFGS step
 
   ------------------- Entering Geometric Direct Minimization ------------------
   GDM::trust : actual energy change is       -1.240973915628274E-006
   GDM::trust : predicted energy change was   -2.459489465368232E-006
   GDM::trust : updated trust radius is        0.330000000000000     
   GDM:         diagonal hessian shift is      0.000000000000000E+000
   GDM::PreWSS: input subspace size is                 16
   GDM::PreWSS: working subspace size set to           16
   GDM::PrEWSS: # of linearly dependent vectors =            3
   GDM::PrEWSS: Max dev from orthonormality =   1.047282052746290E-011
   GDM::BFGS:   lowest Hinv e-value    0.226546595652895     
   GDM::BFGS:   highest Hinv e-value    4.98690080306510     
   GDM::      : max scaling in EWCs is          2.82842712474619     
   GDM::      : max rotation in step is        9.194993655621961E-003
   GDM::        grad.step =  -2.763415156530285E-006
   ------- Leaving GDM -- hopefully with a step in the right direction! --------
 
   18    -121.6994886392      7.58E-04  Gap = 119.55 eV  Normal BFGS step
 
   ------------------- Entering Geometric Direct Minimization ------------------
   GDM::trust : actual energy change is       -1.328923232790657E-006
   GDM::trust : predicted energy change was   -4.145122734795429E-006
   GDM::trust : updated trust radius is        0.330000000000000     
   GDM:         diagonal hessian shift is      0.000000000000000E+000
   GDM::PreWSS: input subspace size is                 17
   GDM::PreWSS: working subspace size set to           17
   GDM::PrEWSS: # of linearly dependent vectors =            3
   GDM::PrEWSS: Max dev from orthonormality =   1.031221774638880E-010
   GDM::BFGS:   lowest Hinv e-value    0.226564130991348     
   GDM::BFGS:   highest Hinv e-value    6.10716005484514     
   GDM::      : max scaling in EWCs is          2.82842712474619     
   GDM::      : max rotation in step is        2.477386917275796E-003
   GDM::        grad.step =  -8.200134054909950E-007
   ------- Leaving GDM -- hopefully with a step in the right direction! --------
 
   19    -121.6994899681      2.86E-04  Gap = 119.55 eV  Normal BFGS step
 
   ------------------- Entering Geometric Direct Minimization ------------------
   GDM::trust : actual energy change is       -2.812410286878730E-007
   GDM::trust : predicted energy change was   -1.230020108236493E-006
   GDM::trust : updated trust radius is        0.330000000000000     
   GDM:         diagonal hessian shift is      0.000000000000000E+000
   GDM::PreWSS: input subspace size is                 18
   GDM::PreWSS: working subspace size set to           18
   GDM::PrEWSS: # of linearly dependent vectors =            4
   GDM::PrEWSS: Max dev from orthonormality =   1.962038864711246E-010
   GDM::BFGS:   lowest Hinv e-value    0.232464957225923     
   GDM::BFGS:   highest Hinv e-value    5.51128784508553     
   GDM::      : max scaling in EWCs is          2.82842712474619     
   GDM::      : max rotation in step is       -6.998235907790736E-004
   GDM::        grad.step =  -1.745011420398609E-007
   ------- Leaving GDM -- hopefully with a step in the right direction! --------
 
   20    -121.6994902493      1.76E-04  Gap = 119.55 eV  Normal BFGS step
 
   ------------------- Entering Geometric Direct Minimization ------------------
   GDM::trust : actual energy change is       -8.915168336898205E-008
   GDM::trust : predicted energy change was   -2.617517130597914E-007
   GDM::trust : updated trust radius is        0.330000000000000     
   GDM:         diagonal hessian shift is      0.000000000000000E+000
   GDM::PreWSS: input subspace size is                 19
   GDM::PreWSS: working subspace size set to           18
   GDM::PrEWSS: # of linearly dependent vectors =            3
   GDM::PrEWSS: Max dev from orthonormality =   8.194783046588938E-011
   GDM::BFGS:   lowest Hinv e-value    0.231855926066115     
   GDM::BFGS:   highest Hinv e-value    5.49008305326328     
   GDM::      : max scaling in EWCs is          2.82842712474619     
   GDM::      : max rotation in step is        7.047152942076626E-005
   GDM::        grad.step =  -8.244106124591352E-009
   ------- Leaving GDM -- hopefully with a step in the right direction! --------
 
   21    -121.6994903385      3.82E-05  Gap = 119.55 eV  Normal BFGS step
 
   ------------------- Entering Geometric Direct Minimization ------------------
   GDM::trust : actual energy change is       -3.333255449433636E-009
   GDM::trust : predicted energy change was   -1.236615918688703E-008
   GDM::trust : updated trust radius is        0.330000000000000     
   GDM:         diagonal hessian shift is      0.000000000000000E+000
   GDM::PreWSS: input subspace size is                 19
   GDM::PreWSS: working subspace size set to           18
   GDM::PrEWSS: # of linearly dependent vectors =            2
   GDM::PrEWSS: Max dev from orthonormality =   8.962719386107487E-010
   GDM::BFGS:   lowest Hinv e-value    0.233203417191368     
   GDM::BFGS:   highest Hinv e-value    5.47798078967582     
   GDM::      : max scaling in EWCs is          2.82842712474619     
   GDM::      : max rotation in step is        3.466916636218471E-005
   GDM::        grad.step =  -8.035310158343849E-010
   ------- Leaving GDM -- hopefully with a step in the right direction! --------
 
   22    -121.6994903418      1.23E-05  Gap = 119.55 eV  Normal BFGS step
 
   ------------------- Entering Geometric Direct Minimization ------------------
   GDM::trust : actual energy change is       -4.313989165893872E-010
   GDM::trust : predicted energy change was   -1.205296523751577E-009
   GDM::trust : updated trust radius is        0.330000000000000     
   GDM:         diagonal hessian shift is      0.000000000000000E+000
   GDM::PreWSS: input subspace size is                 19
   GDM::PreWSS: working subspace size set to           14
   GDM::PrEWSS: # of linearly dependent vectors =            0
   GDM::PrEWSS: Max dev from orthonormality =   2.220653695650388E-010
   GDM::BFGS:   lowest Hinv e-value    0.236558231153638     
   GDM::BFGS:   highest Hinv e-value    5.53568655818539     
   GDM::      : max scaling in EWCs is          2.82842712474619     
   GDM::      : max rotation in step is        6.328706268068782E-006
   GDM::        grad.step =  -7.139745241716131E-011
   ------- Leaving GDM -- hopefully with a step in the right direction! --------
 
   23    -121.6994903423      3.15E-06  Gap = 119.55 eV  Normal BFGS step
 
   ------------------- Entering Geometric Direct Minimization ------------------
   GDM::trust : actual energy change is       -3.788613867072854E-011
   GDM::trust : predicted energy change was   -1.070961786257420E-010
   GDM::trust : updated trust radius is        0.330000000000000     
   GDM:         diagonal hessian shift is      0.000000000000000E+000
   GDM::PreWSS: input subspace size is                 15
   GDM::PreWSS: working subspace size set to           13
   GDM::PrEWSS: # of linearly dependent vectors =            0
   GDM::PrEWSS: Max dev from orthonormality =   4.747732762488965E-011
   GDM::BFGS:   lowest Hinv e-value    0.240655856826062     
   GDM::BFGS:   highest Hinv e-value    5.46434580804245     
   GDM::      : max scaling in EWCs is          2.82842712474619     
   GDM::      : max rotation in step is       -2.409214057361619E-006
   GDM::        grad.step =  -1.065316284623439E-011
   ------- Leaving GDM -- hopefully with a step in the right direction! --------
 
   24    -121.6994903423      9.09E-07  Gap = 119.55 eV  Normal BFGS step
 
   ------------------- Entering Geometric Direct Minimization ------------------
   GDM::trust : actual energy change is       -4.988010005035903E-012
   GDM::trust : predicted energy change was   -1.597974426935159E-011
   GDM::trust : updated trust radius is        0.330000000000000     
   GDM:         diagonal hessian shift is      0.000000000000000E+000
   GDM::PreWSS: input subspace size is                 14
   GDM::PreWSS: working subspace size set to           13
   GDM::PrEWSS: # of linearly dependent vectors =            0
   GDM::PrEWSS: Max dev from orthonormality =   1.780188635391866E-010
   GDM::BFGS:   lowest Hinv e-value    0.363843810793375     
   GDM::BFGS:   highest Hinv e-value    5.48741872049739     
   GDM::      : max scaling in EWCs is          2.82842712474619     
   GDM::      : max rotation in step is       -4.157905030902047E-007
   GDM::        grad.step =  -9.344292292145580E-013
   ------- Leaving GDM -- hopefully with a step in the right direction! --------
 
   25    -121.6994903423      3.60E-07  Gap = 119.55 eV  Normal BFGS step
 
   ------------------- Entering Geometric Direct Minimization ------------------
   GDM::trust : actual energy change is       -3.694822225952521E-013
   GDM::trust : predicted energy change was   -1.401643843821837E-012
   GDM::trust : updated trust radius is        0.330000000000000     
   GDM:         diagonal hessian shift is      0.000000000000000E+000
   GDM::PreWSS: input subspace size is                 14
   GDM::PreWSS: working subspace size set to           13
   GDM::PrEWSS: # of linearly dependent vectors =            0
   GDM::PrEWSS: Max dev from orthonormality =   9.868601769102980E-011
   GDM::BFGS:   lowest Hinv e-value    0.265727489774078     
   GDM::BFGS:   highest Hinv e-value    5.49426808479836     
   GDM::      : max scaling in EWCs is          2.82842712474619     
   GDM::      : max rotation in step is       -3.733233829360210E-007
   GDM::        grad.step =  -3.706405677457530E-013
   ------- Leaving GDM -- hopefully with a step in the right direction! --------
 
   26    -121.6994903423      2.33E-07  Gap = 119.55 eV  Normal BFGS step
 
   ------------------- Entering Geometric Direct Minimization ------------------
   GDM::trust : actual energy change is        5.684341886080801E-014
   GDM::trust : predicted energy change was   -5.559608516186296E-013
   GDM::trust : updated trust radius is        0.108900000000000     
   GDM::WARNING energy changes are now smaller than effective accuracy.
   GDM::        calculation will continue, but THRESH should be increased
   GDM::        or SCF_CONVERGENCE decreased.
   GDM::        effective_thresh =   8.962719386107487E-010
   GDM:         diagonal hessian shift is      0.000000000000000E+000
   GDM::PreWSS: input subspace size is                 14
   GDM::PreWSS: working subspace size set to           14
   GDM::PrEWSS: # of linearly dependent vectors =            1
   GDM::PrEWSS: Max dev from orthonormality =   1.084859563293961E-010
   GDM::BFGS:   lowest Hinv e-value    0.233330809499098     
   GDM::BFGS:   highest Hinv e-value    5.48573564245853     
   GDM::      : max scaling in EWCs is          2.82842712474619     
   GDM::      : max rotation in step is        2.664380436707604E-007
   GDM::        grad.step =  -2.190463442845752E-013
   ------- Leaving GDM -- hopefully with a step in the right direction! --------
 
   27    -121.6994903423      1.89E-07  Gap = 119.55 eV  Normal BFGS step
 
   ------------------- Entering Geometric Direct Minimization ------------------
   GDM::trust : actual energy change is       -1.278976924368180E-013
   GDM::trust : predicted energy change was   -3.285695164268629E-013
   GDM::trust : updated trust radius is        0.330000000000000     
   GDM:         diagonal hessian shift is      0.000000000000000E+000
   GDM::PreWSS: input subspace size is                 15
   GDM::PreWSS: working subspace size set to           13
   GDM::PrEWSS: # of linearly dependent vectors =            0
   GDM::PrEWSS: Max dev from orthonormality =   4.699358853443858E-010
   GDM::BFGS:   lowest Hinv e-value    0.227723508034583     
   GDM::BFGS:   highest Hinv e-value    5.48939033444615     
   GDM::      : max scaling in EWCs is          2.82842712474619     
   GDM::      : max rotation in step is       -3.032048102154278E-008
   GDM::        grad.step =  -1.964938269310450E-015
   ------- Leaving GDM -- hopefully with a step in the right direction! --------
 
   28    -121.6994903423      1.65E-08  Gap = 119.55 eV  Normal BFGS step
 
   ------------------- Entering Geometric Direct Minimization ------------------
   GDM::trust : actual energy change is       -2.842170943040401E-014
   GDM::trust : predicted energy change was   -2.947407403965675E-015
   GDM::trust : updated trust radius is        0.330000000000000     
   GDM:         diagonal hessian shift is      0.000000000000000E+000
   GDM::PreWSS: input subspace size is                 14
   GDM::PreWSS: working subspace size set to           13
   GDM::PrEWSS: # of linearly dependent vectors =            0
   GDM::PrEWSS: Max dev from orthonormality =   1.269477231669036E-010
   GDM::BFGS:   lowest Hinv e-value    0.237546556234226     
   GDM::BFGS:   highest Hinv e-value    5.50216360139936     
   GDM::      : max scaling in EWCs is          2.82842712474619     
   GDM::      : max rotation in step is       -5.739718424146193E-008
   GDM::        grad.step =  -5.560984442009459E-016
   ------- Leaving GDM -- hopefully with a step in the right direction! --------
 
   29    -121.6994903423      1.58E-08  Gap = 119.55 eV  Normal BFGS step
 
   ------------------- Entering Geometric Direct Minimization ------------------
   GDM::trust : actual energy change is       -1.421085471520200E-014
   GDM::trust : predicted energy change was   -8.341476663014184E-016
   GDM::trust : updated trust radius is        0.330000000000000     
   GDM::search:  On step            1 .  The current bracket is:
       left   : x =  0.0000E+00, e =      -121.6994903423, g = -0.8419E-08
       current: x =  0.6605E-07, e =      -121.6994903423, g = -0.9312E-08
       right  : x =  0.1000E+04, e =      1000.0000000000, g =  0.1000E+04
       next   : x =  0.6605E-06
   GDM::      : max rotation in step is       -5.739718424146193E-007
   ------- Leaving GDM -- hopefully with a step in the right direction! --------
 
   30    -121.6994903423      1.27E-09 Convergence criterion met
 ---------------------------------------
 One-Electron    Energy =  -241.5169260238
 Total Coulomb   Energy =   103.7998685324
 Alpha Exchange  Energy =    -1.4024008219
 Beta  Exchange  Energy =    -1.2958316554
 DFT   Exchange  Energy =   -10.8484841127
 DFT Correlation Energy =    -0.8250922462
 Nuclear Repu.   Energy =    30.3893759853
 Nuclear Attr.   Energy =  -339.9692053291
 Kinetic         Energy =    98.4522793053
 <S^2> = 2.0014
 SCF time:  CPU 54.94 s  wall 8.18 s
 SCF   energy in the final basis set = -121.6994903423
 Total energy in the final basis set = -121.6994903423
 
 --------------------------------------------------------------
 
                    Orbital Energies (a.u.)
 --------------------------------------------------------------
 
 Alpha MOs
 -- Occupied --
-19.147  -2.085  -1.319  -1.282  -1.281  -0.861  -0.368  -0.360
 -0.348  -0.199  -0.129
 -- Virtual --
 -0.131  -0.129  -0.074  -0.033  -0.010  -0.003   0.037   0.069
  0.086   0.087   0.167   0.168   0.168   0.173   0.198   0.243
  0.258   0.264   0.272   1.163   1.166   1.204   1.561   1.779
  1.779   1.829   1.829   2.007  11.465
 
 Beta MOs
 -- Occupied --
-19.145  -2.067  -1.298  -1.271  -1.258  -0.853  -0.358  -0.351
 -0.342
 -- Virtual --
 -0.118  -0.106  -0.105  -0.047  -0.037  -0.017   0.009   0.014
  0.039   0.084   0.104   0.107   0.179   0.183   0.192   0.192
  0.207   0.253   0.269   0.273   0.281   1.165   1.170   1.207
  1.564   1.783   1.783   1.829   1.835   2.012  11.465
 --------------------------------------------------------------
 
          Ground-State Mulliken Net Atomic Charges

     Atom                 Charge (a.u.)    Spin (a.u.)
  --------------------------------------------------------
      1 Zr                    0.714103       1.764360
      2 O                    -0.714103       0.235640
  --------------------------------------------------------
  Sum of atomic charges =     0.000000
  Sum of spin   charges =     2.000000

 -----------------------------------------------------------------
                    Cartesian Multipole Moments
 -----------------------------------------------------------------
    Charge (ESU x 10^10)
                 0.0000
    Dipole Moment (Debye)
         X       0.0000      Y       0.0000      Z      -2.2518
       Tot       2.2518
    Quadrupole Moments (Debye-Ang)
        XX     -28.3113     XY       0.0014     YY     -32.1898
        XZ       0.0000     YZ       0.0000     ZZ     -35.9101
    Octopole Moments (Debye-Ang^2)
       XXX       0.0000    XXY       0.0000    XYY       0.0000
       YYY       0.0000    XXZ       0.2030    XYZ      -0.0016
       YYZ       4.7181    XZZ       0.0000    YZZ       0.0000
       ZZZ      -7.1512
    Hexadecapole Moments (Debye-Ang^3)
      XXXX     -61.1916   XXXY       0.0059   XXYY     -25.9675
      XYYY       0.0061   YYYY     -95.0705   XXXZ       0.0000
      XXYZ       0.0000   XYYZ       0.0000   YYYZ       0.0000
      XXZZ     -34.9293   XYZZ       0.0039   YYZZ     -45.8818
      XZZZ       0.0000   YZZZ       0.0000   ZZZZ    -156.5200
 -----------------------------------------------------------------
Archival summary:
1\1\hpc3918\SP\ProcedureUnspecified\BasisUnspecified\r11(\liqiuy\FriJan1720:03:182020FriJan1720:03:182020\0\\#,ProcedureUnspecified,BasisUnspecified,\\28,3\Zr\O,1,1.67167\\\@

 Total job time:  9.14s(wall), 59.12s(cpu) 
 Fri Jan 17 20:03:19 2020

        *************************************************************
        *                                                           *
        *  Thank you very much for using Q-Chem.  Have a nice day.  *
        *                                                           *
        *************************************************************


0 sent ACK to 0 
now end server 0 ... 
cleanup process ... done

Running Job 2 of 2 ZrOx.in
qchem ZrOx.in_2439.1 /tmp/5732860.priya/ZrOx.save/ 1
/usr/usc/qchem/4.4/bin/mpi/mpirun_qchem -machinefile /usr/usc/qchem/4.4/bin/mpi/machines -np 1 /usr/usc/qchem/4.4/exe/qcprog.exe ZrOx.in_2439.1 /tmp/5732860.priya/ZrOx.save/

Process 0 of 1 is on hpc3918.hpcc.usc.edu - thread support 0
initial socket setup ...start
initial socket setup ...done 
now start server 0 ... 
Check license passed

                  Welcome to Q-Chem
     A Quantum Leap Into The Future Of Chemistry


 Q-Chem 4.4, Q-Chem, Inc., Pleasanton, CA (2016)

 Y. Shao,  Z. Gan,  E. Epifanovsky,  A. T. B. Gilbert,  M. Wormit,  
 J. Kussmann,  A. W. Lange,  A. Behn,  J. Deng,  X. Feng,  D. Ghosh,  
 M. Goldey,  P. R. Horn,  L. D. Jacobson,  I. Kaliman,  F.Rob,  
 R. Z. Khaliullin,  T. Kus,  A. Landau,  J. Liu,  E. I. Proynov,  Y. M. Rhee,  
 R. M. Richard,  M. A. Rohrdanz,  R. P. Steele,  E. J. Sundstrom,  
 H. L. Woodcock III,  P. M. Zimmerman,  D. Zuev,  B. Albrecht,  E. Alguire,  
 B. Austin,  S. A. Baeppler,  G. J. O. Beran,  Y. A. Bernard,  E. Berquist,  
 K. Brandhorst,  K. B. Bravaya,  S. T. Brown,  D. Casanova,  C.-M. Chang,  
 Y. Chen,  S. H. Chien,  K. D. Closser,  M. P. Coons,  D. L. Crittenden,  
 S. Dasgupta,  M. Diedenhofen,  R. A. DiStasio Jr.,  H. Do,  A. D. Dutoi,  
 R. G. Edgar,  P.-T. Fang,  S. Fatehi,  Q. Feng,  L. Fusti-Molnar,  
 A. Ghysels,  A. Golubeva-Zadorozhnaya,  J. Gomes,  A. Gunina,  
 M. W. D. Hanson-Heine,  P. H. P. Harbach,  A. W. Hauser,  E. G. Hohenstein,  
 Z. C. Holden,  K. Hui,  T.-C. Jagau,  H. Ji,  B. Kaduk,  K. Khistyaev,  
 Jaehoon Kim,  Jihan Kim,  R. A. King,  P. Klunzinger,  D. Kosenkov,  
 T. Kowalczyk,  C. M. Krauter,  A. Kunitsa,  K. U. Lao,  A. Laurent,  
 K. V. Lawler,  D. Lefrancois,  S. Lehtola,  S. V. Levchenko,  C. Y. Lin,  
 Y.-S. Lin,  F. Liu,  E. Livshits,  R. C. Lochan,  A. Luenser,  P. Manohar,  
 S. F. Manzer,  S.-P. Mao,  Y. Mao,  N. Mardirossian,  A. V. Marenich,  
 L. A. Martinez-Martinez,  S. A. Maurer,  N. J. Mayhall,  J.-M. Mewes,  
 A. F. Morrison,  K. Nanda,  C. M. Oana,  R. Olivares-Amaya,  D. P. O'Neill,  
 J. A. Parkhill,  T. M. Perrine,  R. Peverati,  P. A. Pieniazek,  F. Plasser,  
 A. Prociuk,  D. R. Rehn,  E. Rosta,  N. J. Russ,  N. Sergueev,  
 S. M. Sharada,  S. Sharma,  D. W. Small,  A. Sodt,  T. Stauch,  T. Stein,  
 D. Stuck,  Y.-C. Su,  A. J. W. Thom,  T. Tsuchimochi,  L. Vogt,  O. Vydrov,  
 T. Wang,  M. A. Watson,  J. Wenzel,  A. White,  C. F. Williams,  
 V. Vanovschi,  S. Yeganeh,  S. R. Yost,  Z.-Q. You,  I. Y. Zhang,  X. Zhang,  
 Y. Zhao,  B. R. Brooks,  G. K. L. Chan,  D. M. Chipman,  C. J. Cramer,  
 W. A. Goddard III,  M. S. Gordon,  W. J. Hehre,  A. Klamt,  
 H. F. Schaefer III,  M. W. Schmidt,  C. D. Sherrill,  D. G. Truhlar,  
 A. Warshel,  X. Xu,  A. Aspuru-Guzik,  R. Baer,  A. T. Bell,  N. A. Besley,  
 J.-D. Chai,  A. Dreuw,  B. D. Dunietz,  T. R. Furlani,  S. R. Gwaltney,  
 C.-P. Hsu,  Y. Jung,  J. Kong,  D. S. Lambrecht,  W. Liang,  C. Ochsenfeld,  
 V. A. Rassolov,  L. V. Slipchenko,  J. E. Subotnik,  T. Van Voorhis,  
 J. M. Herbert,  A. I. Krylov,  P. M. W. Gill,  M. Head-Gordon

 Contributors to earlier versions of Q-Chem not listed above: 
 R. D. Adamson,  J. Baker,  E. F. C. Byrd,  A. K. Chakraborty,  C.-L. Cheng,  
 H. Dachsel,  R. J. Doerksen,  G. Hawkins,  A. Heyden,  S. Hirata,  
 G. Kedziora,  F. J. Keil,  C. Kelley,  P. P. Korambath,  W. Kurlancheek,  
 A. M. Lee,  M. S. Lee,  D. Liotard,  I. Lotan,  P. E. Maslen,  N. Nair,  
 D. Neuhauser,  R. Olson,  B. Peters,  J. Ritchie,  N. E. Schultz,  
 N. Shenvi,  A. C. Simmonett,  K. S. Thanthiriwatte,  Q. Wu,  W. Zhang

 Please cite Q-Chem as follows:
 Y. Shao et al., Mol. Phys. 113, 184-215 (2015)
 DOI: 10.1080/00268976.2014.952696

 Q-Chem 4.4.1 for Intel X86 Linux

 Parts of Q-Chem use Armadillo 5.200.1 (Boston Tea Smuggler).
 http://arma.sourceforge.net/

 Q-Chem begins on Fri Jan 17 20:03:22 2020  

Host: 
0

     Scratch files written to /tmp/5732860.priya/ZrOx.save//
 Jul2716 11668_ 21447  21445 5558   
 Parallel job on  1  processors
Processing $rem in /usr/usc/qchem/4.4/config/preferences.
 MEM_TOTAL  2000 
The previous job contains 0 fragments, simply inherited here

Checking the input file for inconsistencies... 	...done.

--------------------------------------------------------------
User input:
--------------------------------------------------------------

$comment
-----------------------
A GEOMETRY OPTIMIZATION
-----------------------
$end

$molecule
READ
$end

$rem
JOBTYPE   OPT
METHOD   B3LYP
BASIS   GEN
ECP   GEN
SCF_GUESS   READ
MAX_SCF_CYCLES   200
SCF_CONVERGENCE 8
SCF_ALGORITHM  DIIS_GDM
SCF_PRINT 1
PDB_PRINT 2
THRESH 14
VARTHRESH 14
INCDFT FALSE
SYMMETRY False
Sym_ignore True
SCF_ALGORITHM GDM
XC_GRID 000128000302
GEOM_OPT_MAX_CYCLES 200
DFT_D           EMPIRICAL_GRIMME3
DFT_D3_S6       1000
DFT_D3_RS6     1261
DFT_D3_S8      1703
DFT_D3_3BODY    FALSE
SCF_PRINT 1
PDB_PRINT 2
$end

$basis
O
6-31+G**
****
S
6-31+G**
****
Zr
LanL2DZ
****
$end

$ecp
Zr
LanL2DZ
****
$end

--------------------------------------------------------------
 ----------------------------------------------------------------
             Standard Nuclear Orientation (Angstroms)
    I     Atom           X                Y                Z
 ----------------------------------------------------------------
    1      Zr      0.0000000000     0.0000000000    -0.2697700000
    2      O       0.0000000000     0.0000000000     1.4019000000
 ----------------------------------------------------------------
 Nuclear Repulsion Energy =    30.3893759871 hartrees
 There are       11 alpha and        9 beta electrons

 Q-Chem warning in module /home/scratch/svnadmin/11668_zgan/qchem/forms1/BasisType.C, line 1419:

 Setting pure/cartesian flag to 2111 for general basis


 Requested basis set is non-standard
 There are 13 shells and 40 basis functions

 Total QAlloc Memory Limit   2000 MB
 Mega-Array Size        61 MB
 MEM_STATIC part        62 MB
 A cutoff of  1.0D-14 yielded     91 shell pairs
 There are       877 function pairs (      1018 Cartesian)
 
 -------------------------------------------------------
 OpenMP Integral Computing Module                       
 Release: version 1.0, May 2013, Q-Chem Inc. Pittsburgh 
 -------------------------------------------------------
 Integral Job Info:
 Integral job number is                      11
 Integral operator is                         1
 short-range coefficients                     0
 long-range coefficients              100000000
 Omega coefficients                           0
 if combine SR and LR in K                    0
 Integral screening is                        0
 Integral computing path is                   2
 max size of driver memory is            800000
 size of driver memory is                593474
 size of scratch memory is             11771240
 max col of scratch BK array               1296
 max len of scratch array in speh3          155
 max len of scratch index in speh4           18
 max int batch size is                      520
 min int batch size is                       52
 fixed nKL is                                52
 max L of basis functions is                  2
 order of int derivative is                   0
 number of shells is                         13
 number of basis is                          43
 number of cartesian basis is                43
 number of contracted shell pairs            91
 number of primitive shell pairs            494
 maxK2 (contraction) of shell pair           36
 max number of K2 of shell pair               1
 max number of CS2 of shell pair              4
 max number of PS2 of shell pair             36
 mem total for path MDJ                   13132
 -------------------------------------------------------
 Requested basis set is non-standard
 Compound shells will be simplified
 There are 16 shells and 40 basis functions
 A cutoff of  1.0D-14 yielded    136 shell pairs
 There are       868 function pairs (      1009 Cartesian)
 Smallest overlap matrix eigenvalue = 4.65E-03

 Scale SEOQF with 1.000000e-01/1.000000e-01/1.000000e-01

 Standard Electronic Orientation quadrupole field applied
 Nucleus-field energy     =    -0.0000000018 hartrees
 Guess MOs from SCF MO coefficient file
 Reading MOs from coefficient file
 Reading MOs from coefficient file
 An unrestricted hybrid HF-DFT SCF calculation will be
 performed using Geometric Direct Minimization
 Exchange:     0.2000 Hartree-Fock + 0.0800 Slater + 0.7200 B88
 Correlation:  0.1900 VWN1RPA + 0.8100 LYP
 Using Euler-Maclaurin-Lebedev (128,302) quadrature formula
 Dispersion:   Grimme D3
 SCF converges when RMS gradient is below 1.0E-08
 Maximum number of minimization steps = 200
 using 12 threads for integral computing 
 -------------------------------------------------------
 OpenMP BLAS3 based DFT computing Module                
 Release: version 1.0, May 2013, Q-Chem Inc. Pittsburgh 
 -------------------------------------------------------
 
   ------------------- Entering Geometric Direct Minimization ------------------
   GDM:         diagonal hessian shift is      0.000000000000000E+000
   GDM::PreWSS: input subspace size is                  1
   GDM::PreWSS: working subspace size set to            1
   GDM::PrEWSS: # of linearly dependent vectors =            0
   GDM::PrEWSS: Max dev from orthonormality =   6.661338147750939E-016
   GDM::BFGS:   lowest Hinv e-value     1.00000000000000     
   GDM::BFGS:   highest Hinv e-value    1.00000000000000     
   GDM::      : max scaling in EWCs is          2.82842712474619     
   GDM::      : max rotation in step is       -6.131553287202599E-007
   GDM::        grad.step =  -7.098893077784355E-014
   ------- Leaving GDM -- hopefully with a step in the right direction! --------
 
 ---------------------------------------
  Cycle       Energy        RMS Gradient
 ---------------------------------------
    1    -121.6994903423      2.17E-07  Gap = -446.68 eV  Normal BFGS step
 
   ------------------- Entering Geometric Direct Minimization ------------------
   GDM::trust : actual energy change is       -4.263256414560601E-014
   GDM::trust : predicted energy change was   -1.064833961667653E-013
   GDM::trust : updated trust radius is        0.330000000000000     
   GDM::search:  On step            1 .  The current bracket is:
       left   : x =  0.0000E+00, e =      -121.6994903423, g = -0.1094E-06
       current: x =  0.6487E-06, e =      -121.6994903423, g = -0.1410E-06
       right  : x =  0.1000E+04, e =      1000.0000000000, g =  0.1000E+04
       next   : x =  0.6487E-05
   GDM::      : max rotation in step is       -6.131553287202600E-006
   ------- Leaving GDM -- hopefully with a step in the right direction! --------
 
    2    -121.6994903423      3.73E-08  Gap = 0.00 eV  Line search: understep
 
   ------------------- Entering Geometric Direct Minimization ------------------
   GDM::trust : actual energy change is       -1.620037437533028E-012
   GDM::trust : predicted energy change was   -1.064833961667653E-013
   GDM::trust : updated trust radius is        0.330000000000000     
   GDM::search:  On step            2 .  The current bracket is:
       left   : x =  0.6487E-06, e =      -121.6994903423, g = -0.1410E-06
       current: x =  0.6487E-05, e =      -121.6994903423, g = -0.4249E-06
       right  : x =  0.1000E+04, e =         0.0000000000, g =  0.0000E+00
       next   : x =  0.5903E-04
   GDM::      : max rotation in step is       -5.579713491354366E-005
   ------- Leaving GDM -- hopefully with a step in the right direction! --------
 
    3    -121.6994903423      3.93E-07  Gap = 0.00 eV  Line search: understep
 
   ------------------- Entering Geometric Direct Minimization ------------------
   GDM::trust : actual energy change is       -9.113421128859045E-011
   GDM::trust : predicted energy change was   -1.064833961667653E-013
   GDM::trust : updated trust radius is        0.330000000000000     
   GDM::search:  On step            3 .  The current bracket is:
       left   : x =  0.6487E-05, e =      -121.6994903423, g = -0.4249E-06
       current: x =  0.5903E-04, e =      -121.6994903424, g = -0.2980E-05
       right  : x =  0.1000E+04, e =         0.0000000000, g =  0.0000E+00
       next   : x =  0.5319E-03
   GDM::      : max rotation in step is       -5.027873695506133E-004
   ------- Leaving GDM -- hopefully with a step in the right direction! --------
 
    4    -121.6994903424      3.59E-06  Gap = 0.00 eV  Line search: understep
 
   ------------------- Entering Geometric Direct Minimization ------------------
   GDM::trust : actual energy change is       -6.936602403584402E-009
   GDM::trust : predicted energy change was   -1.064833961667653E-013
   GDM::trust : updated trust radius is        0.330000000000000     
   GDM::search:  On step            4 .  The current bracket is:
       left   : x =  0.5903E-04, e =      -121.6994903424, g = -0.2980E-05
       current: x =  0.5319E-03, e =      -121.6994903492, g = -0.2597E-04
       right  : x =  0.1000E+04, e =         0.0000000000, g =  0.0000E+00
       next   : x =  0.4788E-02
   GDM::      : max rotation in step is       -4.525699481284241E-003
   ------- Leaving GDM -- hopefully with a step in the right direction! --------
 
    5    -121.6994903492      3.24E-05  Gap = 0.00 eV  Line search: understep
 
   ------------------- Entering Geometric Direct Minimization ------------------
   GDM::trust : actual energy change is       -5.560315230468404E-007
   GDM::trust : predicted energy change was   -1.064833961667653E-013
   GDM::trust : updated trust radius is        0.330000000000000     
   GDM::search:  On step            5 .  The current bracket is:
       left   : x =  0.5319E-03, e =      -121.6994903492, g = -0.2597E-04
       current: x =  0.4788E-02, e =      -121.6994908983, g = -0.2317E-03
       right  : x =  0.1000E+04, e =         0.0000000000, g =  0.0000E+00
       next   : x =  0.4309E-01
   GDM::      : max rotation in step is       -4.073190848688690E-002
   ------- Leaving GDM -- hopefully with a step in the right direction! --------
 
    6    -121.6994908983      2.92E-04  Gap = 0.00 eV  Line search: understep
 
   ------------------- Entering Geometric Direct Minimization ------------------
   GDM::trust : actual energy change is       -4.361724894863528E-005
   GDM::trust : predicted energy change was   -1.064833961667653E-013
   GDM::trust : updated trust radius is        0.330000000000000     
   GDM::search:  On step            6 .  The current bracket is:
       left   : x =  0.4788E-02, e =      -121.6994908983, g = -0.2317E-03
       current: x =  0.4309E-01, e =      -121.6995339596, g = -0.1986E-02
       right  : x =  0.1000E+04, e =         0.0000000000, g =  0.0000E+00
       next   : x =  0.3878E+00
   GDM::      : max rotation in step is       -0.366587789537311     
   ------- Leaving GDM -- hopefully with a step in the right direction! --------
 
    7    -121.6995339596      2.68E-03  Gap = 0.00 eV  Line search: understep
 
   ------------------- Entering Geometric Direct Minimization ------------------
   GDM::trust : actual energy change is       -2.092535429056852E-003
   GDM::trust : predicted energy change was   -1.064833961667653E-013
   GDM::trust : updated trust radius is        0.330000000000000     
   GDM:         diagonal hessian shift is      0.000000000000000E+000
   GDM::PreWSS: input subspace size is                  2
   GDM::PreWSS: working subspace size set to            2
   GDM::PrEWSS: # of linearly dependent vectors =            0
   GDM::PrEWSS: Max dev from orthonormality =   9.436895709313831E-016
   GDM::BFGS:   lowest Hinv e-value   -6.060197691733803E-002
   GDM::BFGS:   highest Hinv e-value    190.500476623381     
   GDM::BFGS:   rebuilding Hinv to be positive definite
   GDM::      : max scaling in EWCs is          2.82842712474619     
   GDM::      : max rotation in step is        0.336843370626240     
   GDM::        grad.step =  -2.483805751055800E-003
   ------- Leaving GDM -- hopefully with a step in the right direction! --------
 
    8    -121.7015828777      9.75E-02  Gap = 0.00 eV  Normal BFGS step
 
   ------------------- Entering Geometric Direct Minimization ------------------
   GDM::trust : actual energy change is        2.704794069671834E-003
   GDM::trust : predicted energy change was   -3.725708626583672E-003
   GDM::trust : updated trust radius is        0.108900000000000     
   GDM::search:  On step            1 .  The current bracket is:
       left   : x =  0.0000E+00, e =      -121.7015828777, g = -0.6858E-02
       current: x =  0.3622E+00, e =      -121.6988780837, g =  0.1569E-01
       right  : x =  0.1000E+04, e =      1000.0000000000, g =  0.1000E+04
       next   : x =  0.8669E-01
   GDM::      : max rotation in step is        8.062420788592871E-002
   ------- Leaving GDM -- hopefully with a step in the right direction! --------
 
    9    -121.6988780837      1.16E-02  Gap = 0.00 eV  Line search: overstep
 
   ------------------- Entering Geometric Direct Minimization ------------------
   GDM::trust : actual energy change is       -1.951843962473276E-004
   GDM::trust : predicted energy change was   -3.725708626583672E-003
   GDM::trust : updated trust radius is        0.108900000000000     
   GDM:         diagonal hessian shift is      0.000000000000000E+000
   GDM::PreWSS: input subspace size is                  3
   GDM::PreWSS: working subspace size set to            3
   GDM::PrEWSS: # of linearly dependent vectors =            0
   GDM::PrEWSS: Max dev from orthonormality =   1.091710055689532E-012
   GDM::BFGS:   lowest Hinv e-value    0.157305206112825     
   GDM::BFGS:   highest Hinv e-value    12.0961203859430     
   GDM::      : max scaling in EWCs is          2.82842712474619     
   GDM::      : max rotation in step is       -0.187307491346547     
   GDM::        grad.step =  -1.511284121492884E-002
   ------- Leaving GDM -- hopefully with a step in the right direction! --------
 
   10    -121.7017780621      8.44E-02  Gap = 0.00 eV  Descent step
 
   ------------------- Entering Geometric Direct Minimization ------------------
   GDM::trust : actual energy change is       -6.314667119212913E-003
   GDM::trust : predicted energy change was   -4.287034931015666E-002
   GDM::trust : updated trust radius is        0.330000000000000     
   GDM:         diagonal hessian shift is      0.000000000000000E+000
   GDM::PreWSS: input subspace size is                  4
   GDM::PreWSS: working subspace size set to            4
   GDM::PrEWSS: # of linearly dependent vectors =            0
   GDM::PrEWSS: Max dev from orthonormality =   3.326339204079432E-012
   GDM::BFGS:   lowest Hinv e-value    0.170913613064924     
   GDM::BFGS:   highest Hinv e-value    23.2653729347622     
   GDM::trust : dogleg step length is          0.330000000000000     
   GDM::      : max scaling in EWCs is          2.82842712474619     
   GDM::      : max rotation in step is       -0.823699062690583     
   GDM::        grad.step =  -7.312229256612586E-002
   ------- Leaving GDM -- hopefully with a step in the right direction! --------
 
   11    -121.7080927293      1.53E-01  Gap = 0.00 eV  Dog-leg BFGS step
 
   ------------------- Entering Geometric Direct Minimization ------------------
   GDM::trust : actual energy change is       -5.374719699972275E-003
   GDM::trust : predicted energy change was   -0.206809847293367     
   GDM::trust : updated trust radius is        0.330000000000000     
   GDM:         diagonal hessian shift is      0.000000000000000E+000
   GDM::PreWSS: input subspace size is                  5
   GDM::PreWSS: working subspace size set to            5
   GDM::PrEWSS: # of linearly dependent vectors =            0
   GDM::PrEWSS: Max dev from orthonormality =   1.516561876080402E-011
   GDM::BFGS:   lowest Hinv e-value    0.259237623036186     
   GDM::BFGS:   highest Hinv e-value    33.5217400089877     
   GDM::      : max scaling in EWCs is          2.53353849330564     
   GDM::      : max rotation in step is        0.113168943116964     
   GDM::        grad.step =  -0.190440864824428     
   ------- Leaving GDM -- hopefully with a step in the right direction! --------
 
   12    -121.7134674490      1.84E-01  Gap = 0.00 eV  Descent step
 
   ------------------- Entering Geometric Direct Minimization ------------------
   GDM::trust : actual energy change is        2.054211415284612E-002
   GDM::trust : predicted energy change was   -0.311119146746572     
   GDM::trust : updated trust radius is        0.108900000000000     
   GDM::search:  On step            1 .  The current bracket is:
       left   : x =  0.0000E+00, e =      -121.7134674490, g = -0.5518E+00
       current: x =  0.3451E+00, e =      -121.6929253348, g =  0.6188E+00
       right  : x =  0.1000E+04, e =      1000.0000000000, g =  0.1000E+04
       next   : x =  0.1558E+00
   GDM::      : max rotation in step is        5.107518981610003E-002
   ------- Leaving GDM -- hopefully with a step in the right direction! --------
 
   13    -121.6929253348      5.95E-02  Gap = 0.00 eV  Line search: overstep
 
   ------------------- Entering Geometric Direct Minimization ------------------
   GDM::trust : actual energy change is       -4.117888212465459E-002
   GDM::trust : predicted energy change was   -0.311119146746572     
   GDM::trust : updated trust radius is        0.108900000000000     
   GDM:         diagonal hessian shift is      0.000000000000000E+000
   GDM::PreWSS: input subspace size is                  6
   GDM::PreWSS: working subspace size set to            6
   GDM::PrEWSS: # of linearly dependent vectors =            0
   GDM::PrEWSS: Max dev from orthonormality =   1.222709433701397E-011
   GDM::BFGS:   lowest Hinv e-value    0.216697641128274     
   GDM::BFGS:   highest Hinv e-value    44.3067125495882     
   GDM::trust : dogleg step length is          0.108900000000000     
   GDM::      : max scaling in EWCs is          2.38506586121690     
   GDM::      : max rotation in step is       -0.158535557871376     
   GDM::        grad.step =  -9.692561485636103E-003
   ------- Leaving GDM -- hopefully with a step in the right direction! --------
 
   14    -121.7546463311      4.62E-02  Gap = 0.00 eV  Dog-leg BFGS step
 
   ------------------- Entering Geometric Direct Minimization ------------------
   GDM::trust : actual energy change is       -4.146717980859194E-003
   GDM::trust : predicted energy change was   -1.393566122614738E-002
   GDM::trust : updated trust radius is        0.108900000000000     
   GDM:         diagonal hessian shift is      0.000000000000000E+000
   GDM::PreWSS: input subspace size is                  7
   GDM::PreWSS: working subspace size set to            7
   GDM::PrEWSS: # of linearly dependent vectors =            0
   GDM::PrEWSS: Max dev from orthonormality =   6.306039024295274E-012
   GDM::BFGS:   lowest Hinv e-value    0.247132793214314     
   GDM::BFGS:   highest Hinv e-value    31.2107359104396     
   GDM::trust : dogleg step length is          0.108900000000000     
   GDM::      : max scaling in EWCs is          2.30352461203690     
   GDM::      : max rotation in step is       -6.630770407850936E-002
   GDM::        grad.step =  -1.125517885629133E-002
   ------- Leaving GDM -- hopefully with a step in the right direction! --------
 
   15    -121.7587930491      3.12E-02  Gap = 0.00 eV  Dog-leg BFGS step
 
   ------------------- Entering Geometric Direct Minimization ------------------
   GDM::trust : actual energy change is        9.499944720516851E-003
   GDM::trust : predicted energy change was   -3.047306146337742E-002
   GDM::trust : updated trust radius is        3.593700000000000E-002
   GDM::search:  On step            1 .  The current bracket is:
       left   : x =  0.0000E+00, e =      -121.7587930491, g = -0.8644E-01
       current: x =  0.1302E+00, e =      -121.7492931043, g =  0.2290E+00
       right  : x =  0.1000E+04, e =      1000.0000000000, g =  0.1000E+04
       next   : x =  0.3530E-01
   GDM::      : max rotation in step is       -1.797881535592455E-002
   ------- Leaving GDM -- hopefully with a step in the right direction! --------
 
   16    -121.7492931043      2.74E-02  Gap = 0.00 eV  Line search: overstep
 
   ------------------- Entering Geometric Direct Minimization ------------------
   GDM::trust : actual energy change is       -1.503720141982967E-003
   GDM::trust : predicted energy change was   -3.047306146337742E-002
   GDM::trust : updated trust radius is        3.593700000000000E-002
   GDM:         diagonal hessian shift is      0.000000000000000E+000
   GDM::PreWSS: input subspace size is                  8
   GDM::PreWSS: working subspace size set to            8
   GDM::PrEWSS: # of linearly dependent vectors =            0
   GDM::PrEWSS: Max dev from orthonormality =   2.783322183841364E-011
   GDM::BFGS:   lowest Hinv e-value    0.233882286697276     
   GDM::BFGS:   highest Hinv e-value    29.4264664379859     
   GDM::trust : dogleg step length is          3.593700000000000E-002
   GDM::      : max scaling in EWCs is          2.29542732569260     
   GDM::      : max rotation in step is       -4.400037504109980E-002
   GDM::        grad.step =  -1.092202532504939E-003
   ------- Leaving GDM -- hopefully with a step in the right direction! --------
 
   17    -121.7602967692      1.28E-02  Gap = 0.00 eV  Dog-leg BFGS step
 
   ------------------- Entering Geometric Direct Minimization ------------------
   GDM::trust : actual energy change is       -2.867506741637271E-004
   GDM::trust : predicted energy change was   -1.788120861246724E-003
   GDM::trust : updated trust radius is        3.593700000000000E-002
   GDM:         diagonal hessian shift is      0.000000000000000E+000
   GDM::PreWSS: input subspace size is                  9
   GDM::PreWSS: working subspace size set to            9
   GDM::PrEWSS: # of linearly dependent vectors =            0
   GDM::PrEWSS: Max dev from orthonormality =   5.975175215722217E-011
   GDM::BFGS:   lowest Hinv e-value    0.239101174578501     
   GDM::BFGS:   highest Hinv e-value    24.2067218461236     
   GDM::      : max scaling in EWCs is          2.29154349602928     
   GDM::      : max rotation in step is       -2.110928490308628E-002
   GDM::        grad.step =  -7.387702144092380E-004
   ------- Leaving GDM -- hopefully with a step in the right direction! --------
 
   18    -121.7605835199      1.60E-02  Gap = 0.00 eV  Normal BFGS step
 
   ------------------- Entering Geometric Direct Minimization ------------------
   GDM::trust : actual energy change is       -3.852614516972608E-004
   GDM::trust : predicted energy change was   -1.108155321613856E-003
   GDM::trust : updated trust radius is        0.330000000000000     
   GDM:         diagonal hessian shift is      0.000000000000000E+000
   GDM::PreWSS: input subspace size is                 10
   GDM::PreWSS: working subspace size set to           10
   GDM::PrEWSS: # of linearly dependent vectors =            0
   GDM::PrEWSS: Max dev from orthonormality =   2.178678695785585E-010
   GDM::BFGS:   lowest Hinv e-value    0.237989071738830     
   GDM::BFGS:   highest Hinv e-value    23.7363347429181     
   GDM::      : max scaling in EWCs is          2.28668525061028     
   GDM::      : max rotation in step is        0.150903671442066     
   GDM::        grad.step =  -3.938902605816133E-004
   ------- Leaving GDM -- hopefully with a step in the right direction! --------
 
   19    -121.7609687813      3.71E-03  Gap = 0.00 eV  Normal BFGS step
 
   ------------------- Entering Geometric Direct Minimization ------------------
   GDM::trust : actual energy change is        2.317781956733711E-003
   GDM::trust : predicted energy change was   -5.908353908724200E-004
   GDM::trust : updated trust radius is        0.108900000000000     
   GDM::search:  On step            1 .  The current bracket is:
       left   : x =  0.0000E+00, e =      -121.7609687813, g = -0.2222E-02
       current: x =  0.1772E+00, e =      -121.7586509994, g =  0.2821E-01
       right  : x =  0.1000E+04, e =      1000.0000000000, g =  0.1000E+04
       next   : x =  0.1772E-01
   GDM::      : max rotation in step is        1.509036714420665E-002
   ------- Leaving GDM -- hopefully with a step in the right direction! --------
 
   20    -121.7586509994      5.56E-03  Gap = 0.00 eV  Line search: overstep
 
   ------------------- Entering Geometric Direct Minimization ------------------
   GDM::trust : actual energy change is       -1.214868970578209E-005
   GDM::trust : predicted energy change was   -5.908353908724200E-004
   GDM::trust : updated trust radius is        0.108900000000000     
   GDM:         diagonal hessian shift is      0.000000000000000E+000
   GDM::PreWSS: input subspace size is                 11
   GDM::PreWSS: working subspace size set to           11
   GDM::PrEWSS: # of linearly dependent vectors =            1
   GDM::PrEWSS: Max dev from orthonormality =   6.729950624562164E-011
   GDM::BFGS:   lowest Hinv e-value    0.238151253673840     
   GDM::BFGS:   highest Hinv e-value    2.20922485981852     
   GDM::      : max scaling in EWCs is          2.28617662414711     
   GDM::      : max rotation in step is       -8.579159034161879E-003
   GDM::        grad.step =  -3.953874552463671E-005
   ------- Leaving GDM -- hopefully with a step in the right direction! --------
 
   21    -121.7609809300      2.64E-03  Gap = 0.00 eV  Normal BFGS step
 
   ------------------- Entering Geometric Direct Minimization ------------------
   GDM::trust : actual energy change is       -2.144371075019080E-005
   GDM::trust : predicted energy change was   -5.930811828695507E-005
   GDM::trust : updated trust radius is        0.330000000000000     
   GDM:         diagonal hessian shift is      0.000000000000000E+000
   GDM::PreWSS: input subspace size is                 12
   GDM::PreWSS: working subspace size set to           12
   GDM::PrEWSS: # of linearly dependent vectors =            1
   GDM::PrEWSS: Max dev from orthonormality =   4.212986001728147E-010
   GDM::BFGS:   lowest Hinv e-value    0.234677985387284     
   GDM::BFGS:   highest Hinv e-value    2.36645663114590     
   GDM::      : max scaling in EWCs is          2.28609741313437     
   GDM::      : max rotation in step is       -4.469761536071834E-003
   GDM::        grad.step =  -6.021487013809851E-006
   ------- Leaving GDM -- hopefully with a step in the right direction! --------
 
   22    -121.7610023737      1.09E-03  Gap = 0.00 eV  Normal BFGS step
 
   ------------------- Entering Geometric Direct Minimization ------------------
   GDM::trust : actual energy change is       -2.598485934868222E-006
   GDM::trust : predicted energy change was   -9.032230520714777E-006
   GDM::trust : updated trust radius is        0.330000000000000     
   GDM:         diagonal hessian shift is      0.000000000000000E+000
   GDM::PreWSS: input subspace size is                 13
   GDM::PreWSS: working subspace size set to           13
   GDM::PrEWSS: # of linearly dependent vectors =            2
   GDM::PrEWSS: Max dev from orthonormality =   1.894381804201650E-010
   GDM::BFGS:   lowest Hinv e-value    0.237533108053526     
   GDM::BFGS:   highest Hinv e-value    2.33102668456300     
   GDM::      : max scaling in EWCs is          2.28629801855366     
   GDM::      : max rotation in step is       -8.608223626172170E-004
   GDM::        grad.step =  -7.144761337994606E-007
   ------- Leaving GDM -- hopefully with a step in the right direction! --------
 
   23    -121.7610049722      2.46E-04  Gap = 0.00 eV  Normal BFGS step
 
   ------------------- Entering Geometric Direct Minimization ------------------
   GDM::trust : actual energy change is       -3.844784828288539E-007
   GDM::trust : predicted energy change was   -1.071714200699191E-006
   GDM::trust : updated trust radius is        0.330000000000000     
   GDM:         diagonal hessian shift is      0.000000000000000E+000
   GDM::PreWSS: input subspace size is                 14
   GDM::PreWSS: working subspace size set to           14
   GDM::PrEWSS: # of linearly dependent vectors =            3
   GDM::PrEWSS: Max dev from orthonormality =   3.020624722571696E-010
   GDM::BFGS:   lowest Hinv e-value    0.236615944148721     
   GDM::BFGS:   highest Hinv e-value    2.31125923142671     
   GDM::      : max scaling in EWCs is          2.28632545434579     
   GDM::      : max rotation in step is       -1.976387905699170E-004
   GDM::        grad.step =  -5.030791333149639E-008
   ------- Leaving GDM -- hopefully with a step in the right direction! --------
 
   24    -121.7610053567      6.85E-05  Gap = 0.00 eV  Normal BFGS step
 
   ------------------- Entering Geometric Direct Minimization ------------------
   GDM::trust : actual energy change is       -2.945789390196296E-008
   GDM::trust : predicted energy change was   -7.546186999724458E-008
   GDM::trust : updated trust radius is        0.330000000000000     
   GDM:         diagonal hessian shift is      0.000000000000000E+000
   GDM::PreWSS: input subspace size is                 15
   GDM::PreWSS: working subspace size set to           15
   GDM::PrEWSS: # of linearly dependent vectors =            4
   GDM::PrEWSS: Max dev from orthonormality =   1.470050747798268E-010
   GDM::BFGS:   lowest Hinv e-value    0.236848663194620     
   GDM::BFGS:   highest Hinv e-value    2.32343032390956     
   GDM::      : max scaling in EWCs is          2.28632132830868     
   GDM::      : max rotation in step is       -1.309841832236225E-004
   GDM::        grad.step =  -8.963240536517507E-009
   ------- Leaving GDM -- hopefully with a step in the right direction! --------
 
   25    -121.7610053861      2.91E-05  Gap = 0.00 eV  Normal BFGS step
 
   ------------------- Entering Geometric Direct Minimization ------------------
   GDM::trust : actual energy change is       -4.306173195800511E-009
   GDM::trust : predicted energy change was   -1.344486080477626E-008
   GDM::trust : updated trust radius is        0.330000000000000     
   GDM:         diagonal hessian shift is      0.000000000000000E+000
   GDM::PreWSS: input subspace size is                 16
   GDM::PreWSS: working subspace size set to           16
   GDM::PrEWSS: # of linearly dependent vectors =            5
   GDM::PrEWSS: Max dev from orthonormality =   2.719479502699684E-010
   GDM::BFGS:   lowest Hinv e-value    0.237185533478163     
   GDM::BFGS:   highest Hinv e-value    2.41540692031913     
   GDM::      : max scaling in EWCs is          2.28631835321809     
   GDM::      : max rotation in step is       -2.528203523826318E-005
   GDM::        grad.step =  -1.042676404857635E-009
   ------- Leaving GDM -- hopefully with a step in the right direction! --------
 
   26    -121.7610053905      8.81E-06  Gap = 0.00 eV  Normal BFGS step
 
[...]
   GDM::BFGS:   highest Hinv e-value    1.88722671125394     
   GDM::      : max scaling in EWCs is          2.27411080748377     
   GDM::      : max rotation in step is        5.542177405483477E-004
   GDM::        grad.step =  -2.989768029398185E-006
   ------- Leaving GDM -- hopefully with a step in the right direction! --------
 
    2    -121.7682299765      8.26E-04  Gap = 0.00 eV  Normal BFGS step
 
   ------------------- Entering Geometric Direct Minimization ------------------
   GDM::trust : actual energy change is       -1.735004815373031E-007
   GDM::trust : predicted energy change was   -4.484652044097278E-006
   GDM::trust : updated trust radius is        0.330000000000000     
   GDM:         diagonal hessian shift is      0.000000000000000E+000
   GDM::PreWSS: input subspace size is                  3
   GDM::PreWSS: working subspace size set to            3
   GDM::PrEWSS: # of linearly dependent vectors =            0
   GDM::PrEWSS: Max dev from orthonormality =   2.011104893728799E-010
   GDM::BFGS:   lowest Hinv e-value    0.221096908322436     
   GDM::BFGS:   highest Hinv e-value    1.28887843637392     
   GDM::      : max scaling in EWCs is          2.27439607227058     
   GDM::      : max rotation in step is       -3.280795732057943E-004
   GDM::        grad.step =  -1.832999117504845E-006
   ------- Leaving GDM -- hopefully with a step in the right direction! --------
 
    3    -121.7682301500      6.07E-04  Gap = 0.00 eV  Normal BFGS step
 
   ------------------- Entering Geometric Direct Minimization ------------------
   GDM::trust : actual energy change is       -7.699135977645710E-007
   GDM::trust : predicted energy change was   -2.749498676257267E-006
   GDM::trust : updated trust radius is        0.330000000000000     
   GDM:         diagonal hessian shift is      0.000000000000000E+000
   GDM::PreWSS: input subspace size is                  4
   GDM::PreWSS: working subspace size set to            4
   GDM::PrEWSS: # of linearly dependent vectors =            2
   GDM::PrEWSS: Max dev from orthonormality =   8.912384719117483E-013
   GDM::BFGS:   lowest Hinv e-value    0.247332134989252     
   GDM::BFGS:   highest Hinv e-value    1.29292808482695     
   GDM::      : max scaling in EWCs is          2.27422025629090     
   GDM::      : max rotation in step is        7.915586993690155E-005
   GDM::        grad.step =  -1.279195351532118E-007
   ------- Leaving GDM -- hopefully with a step in the right direction! --------
 
    4    -121.7682309199      1.03E-04  Gap = 0.00 eV  Normal BFGS step
 
   ------------------- Entering Geometric Direct Minimization ------------------
   GDM::trust : actual energy change is       -4.694835809004871E-008
   GDM::trust : predicted energy change was   -1.918793027298177E-007
   GDM::trust : updated trust radius is        0.330000000000000     
   GDM:         diagonal hessian shift is      0.000000000000000E+000
   GDM::PreWSS: input subspace size is                  5
   GDM::PreWSS: working subspace size set to            5
   GDM::PrEWSS: # of linearly dependent vectors =            3
   GDM::PrEWSS: Max dev from orthonormality =   5.155945115298266E-012
   GDM::BFGS:   lowest Hinv e-value    0.233101586640641     
   GDM::BFGS:   highest Hinv e-value    1.31269245100391     
   GDM::      : max scaling in EWCs is          2.27423606775666     
   GDM::      : max rotation in step is       -3.455479748331138E-005
   GDM::        grad.step =  -1.097924388104992E-008
   ------- Leaving GDM -- hopefully with a step in the right direction! --------
 
    5    -121.7682309669      3.52E-05  Gap = 0.00 eV  Normal BFGS step
 
   ------------------- Entering Geometric Direct Minimization ------------------
   GDM::trust : actual energy change is       -5.145111003912461E-009
   GDM::trust : predicted energy change was   -1.646886582157488E-008
   GDM::trust : updated trust radius is        0.330000000000000     
   GDM:         diagonal hessian shift is      0.000000000000000E+000
   GDM::PreWSS: input subspace size is                  6
   GDM::PreWSS: working subspace size set to            6
   GDM::PrEWSS: # of linearly dependent vectors =            4
   GDM::PrEWSS: Max dev from orthonormality =   4.894931682208892E-012
   GDM::BFGS:   lowest Hinv e-value    0.235803995027208     
   GDM::BFGS:   highest Hinv e-value    1.25632078945012     
   GDM::      : max scaling in EWCs is          2.27423754658038     
   GDM::      : max rotation in step is        8.884684442607049E-006
   GDM::        grad.step =  -3.064406371559757E-010
   ------- Leaving GDM -- hopefully with a step in the right direction! --------
 
    6    -121.7682309720      5.21E-06  Gap = 0.00 eV  Normal BFGS step
 
   ------------------- Entering Geometric Direct Minimization ------------------
   GDM::trust : actual energy change is       -1.327578047494171E-010
   GDM::trust : predicted energy change was   -4.596609557339636E-010
   GDM::trust : updated trust radius is        0.330000000000000     
   GDM:         diagonal hessian shift is      0.000000000000000E+000
   GDM::PreWSS: input subspace size is                  7
   GDM::PreWSS: working subspace size set to            7
   GDM::PrEWSS: # of linearly dependent vectors =            5
   GDM::PrEWSS: Max dev from orthonormality =   6.937797558670411E-012
   GDM::BFGS:   lowest Hinv e-value    0.234592496153189     
   GDM::BFGS:   highest Hinv e-value    1.37751754183124     
   GDM::      : max scaling in EWCs is          2.27423763814336     
   GDM::      : max rotation in step is        2.271093613941370E-006
   GDM::        grad.step =  -4.552946272686543E-011
   ------- Leaving GDM -- hopefully with a step in the right direction! --------
 
    7    -121.7682309721      2.70E-06  Gap = 0.00 eV  Normal BFGS step
 
   ------------------- Entering Geometric Direct Minimization ------------------
   GDM::trust : actual energy change is       -2.792432951537194E-011
   GDM::trust : predicted energy change was   -6.829419409029815E-011
   GDM::trust : updated trust radius is        0.330000000000000     
   GDM:         diagonal hessian shift is      0.000000000000000E+000
   GDM::PreWSS: input subspace size is                  8
   GDM::PreWSS: working subspace size set to            8
   GDM::PrEWSS: # of linearly dependent vectors =            6
   GDM::PrEWSS: Max dev from orthonormality =   1.334522770068958E-011
   GDM::BFGS:   lowest Hinv e-value    0.226520615288458     
   GDM::BFGS:   highest Hinv e-value    1.96942683379129     
   GDM::      : max scaling in EWCs is          2.27423730261859     
   GDM::      : max rotation in step is        1.883436901559067E-006
   GDM::        grad.step =  -1.297269546552211E-011
   ------- Leaving GDM -- hopefully with a step in the right direction! --------
 
    8    -121.7682309722      7.39E-07  Gap = 0.00 eV  Normal BFGS step
 
   ------------------- Entering Geometric Direct Minimization ------------------
   GDM::trust : actual energy change is       -6.721734280290548E-012
   GDM::trust : predicted energy change was   -1.945904319828317E-011
   GDM::trust : updated trust radius is        0.330000000000000     
   GDM:         diagonal hessian shift is      0.000000000000000E+000
   GDM::PreWSS: input subspace size is                  9
   GDM::PreWSS: working subspace size set to            9
   GDM::PrEWSS: # of linearly dependent vectors =            7
   GDM::PrEWSS: Max dev from orthonormality =   7.527742318380604E-012
   GDM::BFGS:   lowest Hinv e-value    0.223993004420206     
   GDM::BFGS:   highest Hinv e-value    2.35868584621662     
   GDM::      : max scaling in EWCs is          2.27423730517137     
   GDM::      : max rotation in step is       -3.784945228341987E-007
   GDM::        grad.step =  -6.853863651602539E-013
   ------- Leaving GDM -- hopefully with a step in the right direction! --------
 
    9    -121.7682309722      3.53E-07  Gap = 0.00 eV  Normal BFGS step
 
   ------------------- Entering Geometric Direct Minimization ------------------
   GDM::trust : actual energy change is       -2.842170943040401E-013
   GDM::trust : predicted energy change was   -1.028079547740381E-012
   GDM::trust : updated trust radius is        0.330000000000000     
   GDM:         diagonal hessian shift is      0.000000000000000E+000
   GDM::PreWSS: input subspace size is                 10
   GDM::PreWSS: working subspace size set to           10
   GDM::PrEWSS: # of linearly dependent vectors =            8
   GDM::PrEWSS: Max dev from orthonormality =   3.908860041201834E-011
   GDM::BFGS:   lowest Hinv e-value    0.224647023479616     
   GDM::BFGS:   highest Hinv e-value    2.29639117418870     
   GDM::      : max scaling in EWCs is          2.27423731910660     
   GDM::      : max rotation in step is       -5.591732067602915E-008
   GDM::        grad.step =  -2.073194017571576E-014
   ------- Leaving GDM -- hopefully with a step in the right direction! --------
 
   10    -121.7682309722      4.63E-08  Gap = 0.00 eV  Normal BFGS step
 
   ------------------- Entering Geometric Direct Minimization ------------------
   GDM::trust : actual energy change is        4.263256414560601E-014
   GDM::trust : predicted energy change was   -3.109791026357364E-014
   GDM::trust : updated trust radius is        0.108900000000000     
   GDM::WARNING energy changes are now smaller than effective accuracy.
   GDM::        calculation will continue, but THRESH should be increased
   GDM::        or SCF_CONVERGENCE decreased.
   GDM::        effective_thresh =   2.011104893728799E-010
   GDM:         diagonal hessian shift is      0.000000000000000E+000
   GDM::PreWSS: input subspace size is                 11
   GDM::PreWSS: working subspace size set to            9
   GDM::PrEWSS: # of linearly dependent vectors =            6
   GDM::PrEWSS: Max dev from orthonormality =   1.431699203635617E-011
   GDM::BFGS:   lowest Hinv e-value    0.273499037672296     
   GDM::BFGS:   highest Hinv e-value    2.37151188773389     
   GDM::      : max scaling in EWCs is          2.27423731926821     
   GDM::      : max rotation in step is       -1.818533923559735E-008
   GDM::        grad.step =  -5.867995975180723E-016
   ------- Leaving GDM -- hopefully with a step in the right direction! --------
 
   11    -121.7682309722      1.21E-08  Gap = 0.00 eV  Normal BFGS step
 
   ------------------- Entering Geometric Direct Minimization ------------------
   GDM::trust : actual energy change is       -8.526512829121202E-014
   GDM::trust : predicted energy change was   -8.801993962771086E-016
   GDM::trust : updated trust radius is        0.330000000000000     
   GDM:         diagonal hessian shift is      0.000000000000000E+000
   GDM::PreWSS: input subspace size is                 10
   GDM::PreWSS: working subspace size set to            9
   GDM::PrEWSS: # of linearly dependent vectors =            5
   GDM::PrEWSS: Max dev from orthonormality =   1.928429638198281E-011
   GDM::BFGS:   lowest Hinv e-value    0.284956576181522     
   GDM::BFGS:   highest Hinv e-value    2.64414068763520     
   GDM::      : max scaling in EWCs is          2.27423731901035     
   GDM::      : max rotation in step is        8.629279193919272E-009
   GDM::        grad.step =  -1.046658932343377E-016
   ------- Leaving GDM -- hopefully with a step in the right direction! --------
 
   12    -121.7682309722      3.92E-09 Convergence criterion met
 ---------------------------------------
 One-Electron    Energy =  -239.3856395064
 Total Coulomb   Energy =   103.1365171822
 Alpha Exchange  Energy =    -1.4073951051
 Beta  Exchange  Energy =    -1.2940763539
 DFT   Exchange  Energy =   -10.8668020893
 DFT Correlation Energy =    -0.8264477614
 Nuclear Repu.   Energy =    28.8756126617
 Nuclear Attr.   Energy =  -337.7667667508
 Kinetic         Energy =    98.3811272443
 <S^2> = 2.0059
 SCF time:  CPU 22.20 s  wall 3.19 s
 SCF   energy in the final basis set = -121.7682309722
 Total energy in the final basis set = -121.7682309722
 
 --------------------------------------------------------------
 
                    Orbital Energies (a.u.)
 --------------------------------------------------------------
 
 Alpha MOs
 -- Occupied --
-19.119  -2.036  -1.263  -1.235  -1.235  -0.833  -0.312  -0.308
 -0.308  -0.180  -0.178
 -- Virtual --
 -0.081  -0.063  -0.063  -0.040   0.008   0.008   0.043   0.071
  0.096   0.096   0.179   0.192   0.192   0.196   0.215   0.252
  0.266   0.273   0.273   1.196   1.196   1.241   1.597   1.826
  1.826   1.859   1.859   1.982  10.164
 
 Beta MOs
 -- Occupied --
-19.121  -2.009  -1.248  -1.197  -1.197  -0.837  -0.312  -0.311
 -0.311
 -- Virtual --
 -0.104  -0.061  -0.046  -0.037  -0.037  -0.023   0.020   0.020
  0.047   0.083   0.118   0.118   0.198   0.198   0.212   0.219
  0.223   0.263   0.276   0.278   0.278   1.193   1.193   1.239
  1.595   1.821   1.822   1.856   1.856   1.980  10.165
 --------------------------------------------------------------
 
          Ground-State Mulliken Net Atomic Charges

     Atom                 Charge (a.u.)    Spin (a.u.)
  --------------------------------------------------------
      1 Zr                    0.697019       1.995711
      2 O                    -0.697019       0.004289
  --------------------------------------------------------
  Sum of atomic charges =     0.000000
  Sum of spin   charges =     2.000000

 -----------------------------------------------------------------
                    Cartesian Multipole Moments
 -----------------------------------------------------------------
    Charge (ESU x 10^10)
                 0.0000
    Dipole Moment (Debye)
         X       0.0000      Y       0.0000      Z      -4.3756
       Tot       4.3756
    Quadrupole Moments (Debye-Ang)
        XX     -28.2613     XY       0.0000     YY     -28.2613
        XZ       0.0000     YZ       0.0000     ZZ     -33.3572
    Octopole Moments (Debye-Ang^2)
       XXX       0.0000    XXY       0.0000    XYY       0.0000
       YYY       0.0000    XXZ      -0.4756    XYZ       0.0000
       YYZ      -0.4756    XZZ       0.0000    YZZ       0.0000
       ZZZ     -11.5949
    Hexadecapole Moments (Debye-Ang^3)
      XXXX     -57.3100   XXXY       0.0000   XXYY     -21.2399
      XYYY       0.0000   YYYY     -57.3100   XXXZ       0.0000
      XXYZ       0.0000   XYYZ       0.0000   YYYZ       0.0000
      XXZZ     -35.1120   XYZZ       0.0000   YYZZ     -35.1120
      XZZZ       0.0000   YZZZ       0.0000   ZZZZ    -158.9181
 -----------------------------------------------------------------
 Calculating analytic gradient of the SCF energy
 Gradient of SCF Energy
            1           2
    1   0.0000000  -0.0000000
    2   0.0000000  -0.0000000
    3   0.0000336  -0.0000336
 Max gradient component =       3.359E-05
 RMS gradient           =       1.939E-05
 Gradient time:  CPU 4.42 s  wall 0.99 s
 Geometry Optimization Parameters
   NAtoms,    NIC,     NZ,  NCons,   NDum,   NFix, NCnnct, MaxDiis
        2       5       0       0       0       0       0       0

 Cartesian Hessian Update
 Hessian Updated using BFGS Update


** GEOMETRY OPTIMIZATION IN CARTESIAN COORDINATES **
   Searching for a Minimum

   Optimization Cycle:   4

                       Coordinates (Angstroms)
     ATOM                X               Y               Z
      1  Zr        0.0000000000    0.0000000000   -0.3135874313
      2  O         0.0000000000    0.0000000000    1.4457174313
   Point Group: c1    Number of degrees of freedom:     0


   Energy is   -121.768230972


 Translations and Rotations Projected Out of Hessian

  1 Hessian modes will be used to form the next step
  Hessian Eigenvalues:
     0.914123

 Minimum Search - Taking Simple RFO Step
 Searching for Lamda that Minimizes Along All modes
 Value Taken    Lamda =   0.00000000
 Step Taken.  Stepsize is  0.000052

                             Maximum     Tolerance    Cnvgd?
         Gradient           0.000034      0.000300     YES
         Displacement       0.000037      0.001200     YES
         Energy change     -0.000003      0.000001      NO


                       Distance Matrix (Angstroms)
             Zr(  1)
   O (  2)  1.759305
 
 Final energy is   -121.768230972167     


 ******************************
 **  OPTIMIZATION CONVERGED  **
 ******************************

                       Coordinates (Angstroms)
     ATOM                X               Y               Z
      1  Zr        0.0000000000    0.0000000000   -0.3135874313
      2  O         0.0000000000    0.0000000000    1.4457174313

Z-matrix Print:
$molecule
0 3
Zr
O  1 1.759305
$end

 
 --------------------------------------------------------------
 
                    Orbital Energies (a.u.)
 --------------------------------------------------------------
 
 Alpha MOs
 -- Occupied --
-19.119  -2.036  -1.263  -1.235  -1.235  -0.833  -0.312  -0.308
 -0.308  -0.180  -0.178
 -- Virtual --
 -0.081  -0.063  -0.063  -0.040   0.008   0.008   0.043   0.071
  0.096   0.096   0.179   0.192   0.192   0.196   0.215   0.252
  0.266   0.273   0.273   1.196   1.196   1.241   1.597   1.826
  1.826   1.859   1.859   1.982  10.164
 
 Beta MOs
 -- Occupied --
-19.121  -2.009  -1.248  -1.197  -1.197  -0.837  -0.312  -0.311
 -0.311
 -- Virtual --
 -0.104  -0.061  -0.046  -0.037  -0.037  -0.023   0.020   0.020
  0.047   0.083   0.118   0.118   0.198   0.198   0.212   0.219
  0.223   0.263   0.276   0.278   0.278   1.193   1.193   1.239
  1.595   1.821   1.822   1.856   1.856   1.980  10.165
 --------------------------------------------------------------
 
          Ground-State Mulliken Net Atomic Charges

     Atom                 Charge (a.u.)    Spin (a.u.)
  --------------------------------------------------------
      1 Zr                    0.697019       1.995711
      2 O                    -0.697019       0.004289
  --------------------------------------------------------
  Sum of atomic charges =     0.000000
  Sum of spin   charges =     2.000000

 -----------------------------------------------------------------
                    Cartesian Multipole Moments
 -----------------------------------------------------------------
    Charge (ESU x 10^10)
                 0.0000
    Dipole Moment (Debye)
         X       0.0000      Y       0.0000      Z      -4.3756
       Tot       4.3756
    Quadrupole Moments (Debye-Ang)
        XX     -28.2613     XY       0.0000     YY     -28.2613
        XZ       0.0000     YZ       0.0000     ZZ     -33.3572
    Octopole Moments (Debye-Ang^2)
       XXX       0.0000    XXY       0.0000    XYY       0.0000
       YYY       0.0000    XXZ      -0.4756    XYZ       0.0000
       YYZ      -0.4756    XZZ       0.0000    YZZ       0.0000
       ZZZ     -11.5949
    Hexadecapole Moments (Debye-Ang^3)
      XXXX     -57.3100   XXXY       0.0000   XXYY     -21.2399
      XYYY       0.0000   YYYY     -57.3100   XXXZ       0.0000
      XXYZ       0.0000   XYYZ       0.0000   YYYZ       0.0000
      XXZZ     -35.1120   XYZZ       0.0000   YYZZ     -35.1120
      XZZZ       0.0000   YZZZ       0.0000   ZZZZ    -158.9181
 -----------------------------------------------------------------
Archival summary:
1\1\hpc3918\OPT\ProcedureUnspecified\BasisUnspecified\r11(\liqiuy\FriJan1720:03:522020FriJan1720:03:522020\0\\#,OPT,ProcedureUnspecified,BasisUnspecified,\\28,3\Zr\O,1,1.7593\\\@

 Total job time:  30.86s(wall), 181.79s(cpu) 
 Fri Jan 17 20:03:53 2020

        *************************************************************
        *                                                           *
        *  Thank you very much for using Q-Chem.  Have a nice day.  *
        *                                                           *
        *************************************************************


0 sent ACK to 0 
now end server 0 ... 
cleanup process ... done
