
Running Job 1 of 2 ZrOx.in
qchem ZrOx.in_4838.0 /tmp/5732874.priya/ZrOx.save/ 1
/usr/usc/qchem/4.4/bin/mpi/mpirun_qchem -machinefile /usr/usc/qchem/4.4/bin/mpi/machines -np 1 /usr/usc/qchem/4.4/exe/qcprog.exe ZrOx.in_4838.0 /tmp/5732874.priya/ZrOx.save/

Process 0 of 1 is on hpc3920.hpcc.usc.edu - thread support 0
initial socket setup ...start
initial socket setup ...done 
now start server 0 ... 
Check license passed

                  Welcome to Q-Chem
     A Quantum Leap Into The Future Of Chemistry


 Q-Chem 4.4, Q-Chem, Inc., Pleasanton, CA (2016)

 Y. Shao,  Z. Gan,  E. Epifanovsky,  A. T. B. Gilbert,  M. Wormit,  
 J. Kussmann,  A. W. Lange,  A. Behn,  J. Deng,  X. Feng,  D. Ghosh,  
 M. Goldey,  P. R. Horn,  L. D. Jacobson,  I. Kaliman,  F.Rob,  
 R. Z. Khaliullin,  T. Kus,  A. Landau,  J. Liu,  E. I. Proynov,  Y. M. Rhee,  
 R. M. Richard,  M. A. Rohrdanz,  R. P. Steele,  E. J. Sundstrom,  
 H. L. Woodcock III,  P. M. Zimmerman,  D. Zuev,  B. Albrecht,  E. Alguire,  
 B. Austin,  S. A. Baeppler,  G. J. O. Beran,  Y. A. Bernard,  E. Berquist,  
 K. Brandhorst,  K. B. Bravaya,  S. T. Brown,  D. Casanova,  C.-M. Chang,  
 Y. Chen,  S. H. Chien,  K. D. Closser,  M. P. Coons,  D. L. Crittenden,  
 S. Dasgupta,  M. Diedenhofen,  R. A. DiStasio Jr.,  H. Do,  A. D. Dutoi,  
 R. G. Edgar,  P.-T. Fang,  S. Fatehi,  Q. Feng,  L. Fusti-Molnar,  
 A. Ghysels,  A. Golubeva-Zadorozhnaya,  J. Gomes,  A. Gunina,  
 M. W. D. Hanson-Heine,  P. H. P. Harbach,  A. W. Hauser,  E. G. Hohenstein,  
 Z. C. Holden,  K. Hui,  T.-C. Jagau,  H. Ji,  B. Kaduk,  K. Khistyaev,  
 Jaehoon Kim,  Jihan Kim,  R. A. King,  P. Klunzinger,  D. Kosenkov,  
 T. Kowalczyk,  C. M. Krauter,  A. Kunitsa,  K. U. Lao,  A. Laurent,  
 K. V. Lawler,  D. Lefrancois,  S. Lehtola,  S. V. Levchenko,  C. Y. Lin,  
 Y.-S. Lin,  F. Liu,  E. Livshits,  R. C. Lochan,  A. Luenser,  P. Manohar,  
 S. F. Manzer,  S.-P. Mao,  Y. Mao,  N. Mardirossian,  A. V. Marenich,  
 L. A. Martinez-Martinez,  S. A. Maurer,  N. J. Mayhall,  J.-M. Mewes,  
 A. F. Morrison,  K. Nanda,  C. M. Oana,  R. Olivares-Amaya,  D. P. O'Neill,  
 J. A. Parkhill,  T. M. Perrine,  R. Peverati,  P. A. Pieniazek,  F. Plasser,  
 A. Prociuk,  D. R. Rehn,  E. Rosta,  N. J. Russ,  N. Sergueev,  
 S. M. Sharada,  S. Sharma,  D. W. Small,  A. Sodt,  T. Stauch,  T. Stein,  
 D. Stuck,  Y.-C. Su,  A. J. W. Thom,  T. Tsuchimochi,  L. Vogt,  O. Vydrov,  
 T. Wang,  M. A. Watson,  J. Wenzel,  A. White,  C. F. Williams,  
 V. Vanovschi,  S. Yeganeh,  S. R. Yost,  Z.-Q. You,  I. Y. Zhang,  X. Zhang,  
 Y. Zhao,  B. R. Brooks,  G. K. L. Chan,  D. M. Chipman,  C. J. Cramer,  
 W. A. Goddard III,  M. S. Gordon,  W. J. Hehre,  A. Klamt,  
 H. F. Schaefer III,  M. W. Schmidt,  C. D. Sherrill,  D. G. Truhlar,  
 A. Warshel,  X. Xu,  A. Aspuru-Guzik,  R. Baer,  A. T. Bell,  N. A. Besley,  
 J.-D. Chai,  A. Dreuw,  B. D. Dunietz,  T. R. Furlani,  S. R. Gwaltney,  
 C.-P. Hsu,  Y. Jung,  J. Kong,  D. S. Lambrecht,  W. Liang,  C. Ochsenfeld,  
 V. A. Rassolov,  L. V. Slipchenko,  J. E. Subotnik,  T. Van Voorhis,  
 J. M. Herbert,  A. I. Krylov,  P. M. W. Gill,  M. Head-Gordon

 Contributors to earlier versions of Q-Chem not listed above: 
 R. D. Adamson,  J. Baker,  E. F. C. Byrd,  A. K. Chakraborty,  C.-L. Cheng,  
 H. Dachsel,  R. J. Doerksen,  G. Hawkins,  A. Heyden,  S. Hirata,  
 G. Kedziora,  F. J. Keil,  C. Kelley,  P. P. Korambath,  W. Kurlancheek,  
 A. M. Lee,  M. S. Lee,  D. Liotard,  I. Lotan,  P. E. Maslen,  N. Nair,  
 D. Neuhauser,  R. Olson,  B. Peters,  J. Ritchie,  N. E. Schultz,  
 N. Shenvi,  A. C. Simmonett,  K. S. Thanthiriwatte,  Q. Wu,  W. Zhang

 Please cite Q-Chem as follows:
 Y. Shao et al., Mol. Phys. 113, 184-215 (2015)
 DOI: 10.1080/00268976.2014.952696

 Q-Chem 4.4.1 for Intel X86 Linux

 Parts of Q-Chem use Armadillo 5.200.1 (Boston Tea Smuggler).
 http://arma.sourceforge.net/

 Q-Chem begins on Fri Jan 17 20:04:10 2020  

Host: 
0

     Scratch files written to /tmp/5732874.priya/ZrOx.save//
 Jul2716 11668_ 21447  21445 5558   
 Parallel job on  1  processors
Processing $rem in /usr/usc/qchem/4.4/config/preferences.
 MEM_TOTAL  2000 

Checking the input file for inconsistencies... 	...done.

--------------------------------------------------------------
User input:
--------------------------------------------------------------
$comment
--------------------------------------------------------
A SINGLE POINT DFT CALCULATION WITH BASIS SET PROJECTION
--------------------------------------------------------
$end

$molecule
0 3
Zr 0.00000 0.00000 0.28208
O 1.48498 0.00000 1.14998
O -1.48498 0.00000 1.14998
S 0.00000 0.00000 -1.89027
$end

$rem
JOBTYPE   SP
METHOD   B3LYP
BASIS   GEN
ECP   GEN
MAX_SCF_CYCLES   200
SCF_CONVERGENCE 8
SCF_PRINT 1
PDB_PRINT 2
THRESH 14
VARTHRESH 14
INCDFT FALSE
SYMMETRY False
Sym_ignore True
SCF_ALGORITHM GDM
XC_GRID 000128000302
DFT_D           EMPIRICAL_GRIMME3
DFT_D3_S6       1000
DFT_D3_RS6     1261
DFT_D3_S8      1703
DFT_D3_3BODY    FALSE
$end

$basis
O
6-31+G**
****
S
6-31+G**
****
Zr
LanL2DZ
****
$end

$ecp
Zr
LanL2DZ
****
$end

--------------------------------------------------------------
 ----------------------------------------------------------------
             Standard Nuclear Orientation (Angstroms)
    I     Atom           X                Y                Z
 ----------------------------------------------------------------
    1      Zr      0.0000000000     0.0000000000     0.2820800000
    2      O       1.4849800000     0.0000000000     1.1499800000
    3      O      -1.4849800000     0.0000000000     1.1499800000
    4      S       0.0000000000     0.0000000000    -1.8902700000
 ----------------------------------------------------------------
 Nuclear Repulsion Energy =   157.2810255774 hartrees
 There are       23 alpha and       21 beta electrons

 Q-Chem warning in module /home/scratch/svnadmin/11668_zgan/qchem/forms1/BasisType.C, line 1419:

 Setting pure/cartesian flag to 2111 for general basis


 Requested basis set is non-standard
 There are 24 shells and 80 basis functions

 Total QAlloc Memory Limit   2000 MB
 Mega-Array Size        61 MB
 MEM_STATIC part        62 MB

                       Distance Matrix (Angstroms)
             Zr(  1)   O (  2)   O (  3)
   O (  2)  1.720005
   O (  3)  1.720005  2.969960
   S (  4)  2.172350  3.383532  3.383532
 
 A cutoff of  1.0D-14 yielded    293 shell pairs
 There are      3340 function pairs (      3780 Cartesian)
 
 -------------------------------------------------------
 OpenMP Integral Computing Module                       
 Release: version 1.0, May 2013, Q-Chem Inc. Pittsburgh 
 -------------------------------------------------------
 Integral Job Info:
 Integral job number is                      11
 Integral operator is                         1
 short-range coefficients                     0
 long-range coefficients              100000000
 Omega coefficients                           0
 if combine SR and LR in K                    0
 Integral screening is                        0
 Integral computing path is                   2
 max size of driver memory is            800000
 size of driver memory is                593474
 size of scratch memory is             15166112
 max col of scratch BK array               1296
 max len of scratch array in speh3          155
 max len of scratch index in speh4           18
 max int batch size is                      520
 min int batch size is                       52
 fixed nKL is                                52
 max L of basis functions is                  2
 order of int derivative is                   0
 number of shells is                         24
 number of basis is                          85
 number of cartesian basis is                85
 number of contracted shell pairs           293
 number of primitive shell pairs           1571
 maxK2 (contraction) of shell pair           36
 max number of K2 of shell pair               1
 max number of CS2 of shell pair             24
 max number of PS2 of shell pair            138
 mem total for path MDJ                   17464
 -------------------------------------------------------
 Requested basis set is non-standard
 Compound shells will be simplified
 There are 34 shells and 80 basis functions
 A cutoff of  1.0D-14 yielded    584 shell pairs
 There are      3310 function pairs (      3750 Cartesian)
 Smallest overlap matrix eigenvalue = 7.56E-04

 Scale SEOQF with 1.000000e-01/1.000000e-01/1.000000e-01

 Standard Electronic Orientation quadrupole field applied
 Nucleus-field energy     =    -0.0000000072 hartrees
 Guess MOs from core Hamiltonian diagonalization
 An unrestricted hybrid HF-DFT SCF calculation will be
 performed using Geometric Direct Minimization
 Exchange:     0.2000 Hartree-Fock + 0.0800 Slater + 0.7200 B88
 Correlation:  0.1900 VWN1RPA + 0.8100 LYP
 Using Euler-Maclaurin-Lebedev (128,302) quadrature formula
 Dispersion:   Grimme D3
 SCF converges when RMS gradient is below 1.0E-08
 Maximum number of minimization steps = 200
 using 12 threads for integral computing 
 -------------------------------------------------------
 OpenMP BLAS3 based DFT computing Module                
 Release: version 1.0, May 2013, Q-Chem Inc. Pittsburgh 
 -------------------------------------------------------
 
   ------------------- Entering Geometric Direct Minimization ------------------
   GDM:         diagonal hessian shift is      0.000000000000000E+000
   GDM::PreWSS: input subspace size is                  1
   GDM::PreWSS: working subspace size set to            1
   GDM::PrEWSS: # of linearly dependent vectors =            0
   GDM::PrEWSS: Max dev from orthonormality =   4.440892098500626E-016
   GDM::BFGS:   lowest Hinv e-value     1.00000000000000     
   GDM::BFGS:   highest Hinv e-value    1.00000000000000     
   GDM::      : max scaling in EWCs is          1.41421356237309     
   GDM::      : max rotation in step is       -0.118429540711049     
   GDM::        grad.step =   -2.67447319431228     
   ------- Leaving GDM -- hopefully with a step in the right direction! --------
 
 ---------------------------------------
  Cycle       Energy        RMS Gradient
 ---------------------------------------
    1    -581.3662313534      2.06E+00  Gap = 173.99 eV  Descent step
 
   ------------------- Entering Geometric Direct Minimization ------------------
   GDM::trust : actual energy change is        -2.61658092859398     
   GDM::trust : predicted energy change was   -0.163350000000000     
   GDM::trust : updated trust radius is        0.330000000000000     
   GDM:         diagonal hessian shift is      0.000000000000000E+000
   GDM::PreWSS: input subspace size is                  2
   GDM::PreWSS: working subspace size set to            2
   GDM::PrEWSS: # of linearly dependent vectors =            0
   GDM::PrEWSS: Max dev from orthonormality =   1.000935445638618E-014
   GDM::BFGS:   lowest Hinv e-value    0.575692277397191     
   GDM::BFGS:   highest Hinv e-value    1.78340992593244     
   GDM::      : max scaling in EWCs is          1.41421356237309     
   GDM::      : max rotation in step is       -0.104305810392817     
   GDM::        grad.step =   -2.22161924976038     
   ------- Leaving GDM -- hopefully with a step in the right direction! --------
 
    2    -583.9828122820      1.67E+00  Gap = 27.21 eV  Descent step
 
   ------------------- Entering Geometric Direct Minimization ------------------
   GDM::trust : actual energy change is        -2.12888787455938     
   GDM::trust : predicted energy change was   -0.153166841690814     
   GDM::trust : updated trust radius is        0.330000000000000     
   GDM:         diagonal hessian shift is      0.000000000000000E+000
   GDM::PreWSS: input subspace size is                  3
   GDM::PreWSS: working subspace size set to            3
   GDM::PrEWSS: # of linearly dependent vectors =            0
   GDM::PrEWSS: Max dev from orthonormality =   1.041583486127706E-012
   GDM::BFGS:   lowest Hinv e-value    0.485883493759290     
   GDM::BFGS:   highest Hinv e-value    1.42796896326617     
   GDM::      : max scaling in EWCs is          1.41421356237309     
   GDM::      : max rotation in step is       -9.077963654170861E-002
   GDM::        grad.step =   -1.77852890388100     
   ------- Leaving GDM -- hopefully with a step in the right direction! --------
 
    3    -586.1117001565      1.05E+00  Gap = 27.21 eV  Descent step
 
   ------------------- Entering Geometric Direct Minimization ------------------
   GDM::trust : actual energy change is        -1.71293114378352     
   GDM::trust : predicted energy change was   -0.157144725024659     
   GDM::trust : updated trust radius is        0.330000000000000     
   GDM::search:  On step            1 .  The current bracket is:
       left   : x =  0.0000E+00, e =      -586.1117001565, g = -0.5367E+01
       current: x =  0.3314E+00, e =      -587.8246313003, g = -0.4930E+01
       right  : x =  0.1000E+04, e =      1000.0000000000, g =  0.1000E+04
       next   : x =  0.3314E+01
   GDM::      : max rotation in step is       -0.907796365417086     
   ------- Leaving GDM -- hopefully with a step in the right direction! --------
 
    4    -587.8246313003      9.58E+00  Gap = 27.21 eV  Line search: understep
 
   ------------------- Entering Geometric Direct Minimization ------------------
   GDM::trust : actual energy change is        -2.89737458707953     
   GDM::trust : predicted energy change was   -0.157144725024659     
   GDM::trust : updated trust radius is        0.330000000000000     
   GDM:         diagonal hessian shift is      0.000000000000000E+000
   GDM::PreWSS: input subspace size is                  4
   GDM::PreWSS: working subspace size set to            4
   GDM::PrEWSS: # of linearly dependent vectors =            0
   GDM::PrEWSS: Max dev from orthonormality =   1.889460810033938E-013
   GDM::BFGS:   lowest Hinv e-value    0.282056819680960     
   GDM::BFGS:   highest Hinv e-value    1.58980182742763     
   GDM::      : max scaling in EWCs is          2.82842712474619     
   GDM::      : max rotation in step is        0.146033070752115     
   GDM::        grad.step =   -1.97587986792985     
   ------- Leaving GDM -- hopefully with a step in the right direction! --------
 
    5    -589.0090747436      1.41E+00  Gap = 27.21 eV  Descent step
 
   ------------------- Entering Geometric Direct Minimization ------------------
   GDM::trust : actual energy change is        -1.83912759586860     
   GDM::trust : predicted energy change was   -0.277911405207261     
   GDM::trust : updated trust radius is        0.330000000000000     
   GDM:         diagonal hessian shift is      0.000000000000000E+000
   GDM::PreWSS: input subspace size is                  5
   GDM::PreWSS: working subspace size set to            5
   GDM::PrEWSS: # of linearly dependent vectors =            0
   GDM::PrEWSS: Max dev from orthonormality =   5.499038724376959E-013
   GDM::BFGS:   lowest Hinv e-value    0.407913495247848     
   GDM::BFGS:   highest Hinv e-value    1.89893086800196     
   GDM::      : max scaling in EWCs is          2.82842712474619     
   GDM::      : max rotation in step is       -0.222490228621733     
   GDM::        grad.step =   -1.30036915746247     
   ------- Leaving GDM -- hopefully with a step in the right direction! --------
 
    6    -590.8482023395      9.39E-01  Gap = 27.21 eV  Descent step
 
   ------------------- Entering Geometric Direct Minimization ------------------
   GDM::trust : actual energy change is        -1.18152838329127     
   GDM::trust : predicted energy change was   -0.204939779440218     
   GDM::trust : updated trust radius is        0.330000000000000     
   GDM:         diagonal hessian shift is      0.000000000000000E+000
   GDM::PreWSS: input subspace size is                  6
   GDM::PreWSS: working subspace size set to            6
   GDM::PrEWSS: # of linearly dependent vectors =            0
   GDM::PrEWSS: Max dev from orthonormality =   1.525009285519019E-012
   GDM::BFGS:   lowest Hinv e-value    0.393070057876345     
   GDM::BFGS:   highest Hinv e-value    1.81066826249397     
   GDM::      : max scaling in EWCs is          2.82842712474619     
   GDM::      : max rotation in step is       -0.178389026174082     
   GDM::        grad.step =  -0.978169876390913     
   ------- Leaving GDM -- hopefully with a step in the right direction! --------
 
    7    -592.0297307228      6.84E-01  Gap = 27.21 eV  Descent step
 
   ------------------- Entering Geometric Direct Minimization ------------------
   GDM::trust : actual energy change is       -0.869306156861057     
   GDM::trust : predicted energy change was   -0.200039486419960     
   GDM::trust : updated trust radius is        0.330000000000000     
   GDM:         diagonal hessian shift is      0.000000000000000E+000
   GDM::PreWSS: input subspace size is                  7
   GDM::PreWSS: working subspace size set to            7
   GDM::PrEWSS: # of linearly dependent vectors =            0
   GDM::PrEWSS: Max dev from orthonormality =   6.213710102009884E-013
   GDM::BFGS:   lowest Hinv e-value    0.392816769752114     
   GDM::BFGS:   highest Hinv e-value    1.95387336605809     
   GDM::      : max scaling in EWCs is          2.82842712474619     
   GDM::      : max rotation in step is        0.109780738755343     
   GDM::        grad.step =  -0.718123231042276     
   ------- Leaving GDM -- hopefully with a step in the right direction! --------
 
    8    -592.8990368796      5.82E-01  Gap = 0.00 eV  Descent step
 
   ------------------- Entering Geometric Direct Minimization ------------------
   GDM::trust : actual energy change is       -0.622929741420876     
   GDM::trust : predicted energy change was   -0.192611910452408     
   GDM::trust : updated trust radius is        0.330000000000000     
   GDM:         diagonal hessian shift is      0.000000000000000E+000
   GDM::PreWSS: input subspace size is                  8
   GDM::PreWSS: working subspace size set to            8
   GDM::PrEWSS: # of linearly dependent vectors =            0
   GDM::PrEWSS: Max dev from orthonormality =   3.245001489737831E-012
   GDM::BFGS:   lowest Hinv e-value    0.422198762185954     
   GDM::BFGS:   highest Hinv e-value    2.03771950878468     
   GDM::      : max scaling in EWCs is          2.82842712474619     
   GDM::      : max rotation in step is       -7.861672178848500E-002
   GDM::        grad.step =  -0.521235591587199     
   ------- Leaving GDM -- hopefully with a step in the right direction! --------
 
    9    -593.5219666211      4.15E-01  Gap = 0.00 eV  Descent step
 
   ------------------- Entering Geometric Direct Minimization ------------------
   GDM::trust : actual energy change is       -0.447385829860309     
   GDM::trust : predicted energy change was   -0.176724993136005     
   GDM::trust : updated trust radius is        0.330000000000000     
   GDM:         diagonal hessian shift is      0.000000000000000E+000
   GDM::PreWSS: input subspace size is                  9
   GDM::PreWSS: working subspace size set to            9
   GDM::PrEWSS: # of linearly dependent vectors =            0
   GDM::PrEWSS: Max dev from orthonormality =   4.428669236888894E-012
   GDM::BFGS:   lowest Hinv e-value    0.466259118074681     
   GDM::BFGS:   highest Hinv e-value    2.08969148530361     
   GDM::      : max scaling in EWCs is          2.82842712474619     
   GDM::      : max rotation in step is       -0.150233503994516     
   GDM::        grad.step =  -0.374110834780732     
   ------- Leaving GDM -- hopefully with a step in the right direction! --------
 
   10    -593.9693524509      2.47E-01  Gap = 0.00 eV  Descent step
 
   ------------------- Entering Geometric Direct Minimization ------------------
   GDM::trust : actual energy change is       -0.314712518614328     
   GDM::trust : predicted energy change was   -0.167965363740419     
   GDM::trust : updated trust radius is        0.330000000000000     
   GDM:         diagonal hessian shift is      0.000000000000000E+000
   GDM::PreWSS: input subspace size is                 10
   GDM::PreWSS: working subspace size set to           10
   GDM::PrEWSS: # of linearly dependent vectors =            0
   GDM::PrEWSS: Max dev from orthonormality =   1.931281523592787E-012
   GDM::BFGS:   lowest Hinv e-value    0.447299603819005     
   GDM::BFGS:   highest Hinv e-value    2.12584141631213     
   GDM::      : max scaling in EWCs is          2.82842712474619     
   GDM::      : max rotation in step is       -0.248916513795802     
   GDM::        grad.step =  -0.260979371925183     
   ------- Leaving GDM -- hopefully with a step in the right direction! --------
 
   11    -594.2840649695      2.13E-01  Gap = 0.00 eV  Descent step
 
   ------------------- Entering Geometric Direct Minimization ------------------
   GDM::trust : actual energy change is       -0.216047805758990     
   GDM::trust : predicted energy change was   -0.153973435128885     
   GDM::trust : updated trust radius is        0.330000000000000     
   GDM:         diagonal hessian shift is      0.000000000000000E+000
   GDM::PreWSS: input subspace size is                 11
   GDM::PreWSS: working subspace size set to           11
   GDM::PrEWSS: # of linearly dependent vectors =            0
   GDM::PrEWSS: Max dev from orthonormality =   1.568660479289719E-011
   GDM::BFGS:   lowest Hinv e-value    0.396428263024482     
   GDM::BFGS:   highest Hinv e-value    2.15427452216072     
   GDM::      : max scaling in EWCs is          2.82842712474619     
   GDM::      : max rotation in step is       -0.395586524071043     
   GDM::        grad.step =  -0.182242746886326     
   ------- Leaving GDM -- hopefully with a step in the right direction! --------
 
   12    -594.5001127753      2.68E-01  Gap = 0.00 eV  Descent step
 
   ------------------- Entering Geometric Direct Minimization ------------------
   GDM::trust : actual energy change is       -0.156879290459074     
   GDM::trust : predicted energy change was   -0.140267091516128     
   GDM::trust : updated trust radius is        0.330000000000000     
   GDM:         diagonal hessian shift is      0.000000000000000E+000
   GDM::PreWSS: input subspace size is                 12
   GDM::PreWSS: working subspace size set to           12
   GDM::PrEWSS: # of linearly dependent vectors =            0
   GDM::PrEWSS: Max dev from orthonormality =   3.446444518662162E-012
   GDM::BFGS:   lowest Hinv e-value    0.298593248694323     
   GDM::BFGS:   highest Hinv e-value    3.21411727331325     
   GDM::      : max scaling in EWCs is          2.82842712474619     
   GDM::      : max rotation in step is        0.486884656136712     
   GDM::        grad.step =  -0.163524521942875     
   ------- Leaving GDM -- hopefully with a step in the right direction! --------
 
   13    -594.6569920657      2.58E-01  Gap = 0.00 eV  Descent step
 
   ------------------- Entering Geometric Direct Minimization ------------------
   GDM::trust : actual energy change is       -0.103005812437914     
   GDM::trust : predicted energy change was   -0.149551689339502     
   GDM::trust : updated trust radius is        0.330000000000000     
   GDM:         diagonal hessian shift is      0.000000000000000E+000
   GDM::PreWSS: input subspace size is                 13
   GDM::PreWSS: working subspace size set to           13
   GDM::PrEWSS: # of linearly dependent vectors =            0
   GDM::PrEWSS: Max dev from orthonormality =   1.065895982588216E-011
   GDM::BFGS:   lowest Hinv e-value    0.248061349325568     
   GDM::BFGS:   highest Hinv e-value    3.33470227484976     
   GDM::      : max scaling in EWCs is          2.82842712474619     
   GDM::      : max rotation in step is        0.310958428546810     
   GDM::        grad.step =  -0.203672961433494     
   ------- Leaving GDM -- hopefully with a step in the right direction! --------
 
   14    -594.7599978782      2.06E-01  Gap = 0.00 eV  Descent step
 
   ------------------- Entering Geometric Direct Minimization ------------------
   GDM::trust : actual energy change is        9.506888592090945E-002
   GDM::trust : predicted energy change was   -0.282201412136633     
   GDM::trust : updated trust radius is        0.108900000000000     
   GDM::search:  On step            1 .  The current bracket is:
       left   : x =  0.0000E+00, e =      -594.7599978782, g = -0.3683E+00
       current: x =  0.5530E+00, e =      -594.6649289923, g =  0.7195E+00
       right  : x =  0.1000E+04, e =      1000.0000000000, g =  0.1000E+04
       next   : x =  0.1885E+00
   GDM::      : max rotation in step is        0.106000924520126     
   ------- Leaving GDM -- hopefully with a step in the right direction! --------
 
   15    -594.6649289923      2.35E-01  Gap = 0.00 eV  Line search: overstep
 
   ------------------- Entering Geometric Direct Minimization ------------------
   GDM::trust : actual energy change is       -3.619375388541357E-002
   GDM::trust : predicted energy change was   -0.282201412136633     
   GDM::trust : updated trust radius is        0.108900000000000     
   GDM:         diagonal hessian shift is      0.000000000000000E+000
   GDM::PreWSS: input subspace size is                 14
   GDM::PreWSS: working subspace size set to           14
   GDM::PrEWSS: # of linearly dependent vectors =            0
   GDM::PrEWSS: Max dev from orthonormality =   3.705064033354688E-012
   GDM::BFGS:   lowest Hinv e-value    0.136373312409344     
   GDM::BFGS:   highest Hinv e-value    2.81566993772193     
   GDM::      : max scaling in EWCs is          2.82842712474619     
   GDM::      : max rotation in step is        0.181773027447253     
   GDM::        grad.step =  -2.929973755474621E-002
   ------- Leaving GDM -- hopefully with a step in the right direction! --------
 
   16    -594.7961916321      1.78E-01  Gap = 0.00 eV  Descent step
 
   ------------------- Entering Geometric Direct Minimization ------------------
   GDM::trust : actual energy change is       -1.413585433533626E-002
   GDM::trust : predicted energy change was   -2.480236381711939E-002
   GDM::trust : updated trust radius is        0.330000000000000     
   GDM:         diagonal hessian shift is      0.000000000000000E+000
   GDM::PreWSS: input subspace size is                 15
   GDM::PreWSS: working subspace size set to           15
   GDM::PrEWSS: # of linearly dependent vectors =            0
   GDM::PrEWSS: Max dev from orthonormality =   3.382436691845569E-012
   GDM::BFGS:   lowest Hinv e-value    0.148813764299123     
   GDM::BFGS:   highest Hinv e-value    2.41507369177472     
   GDM::      : max scaling in EWCs is          2.82842712474619     
   GDM::      : max rotation in step is        0.238383994815330     
   GDM::        grad.step =  -6.142750013848400E-002
   ------- Leaving GDM -- hopefully with a step in the right direction! --------
 
   17    -594.8103274864      1.27E-01  Gap = 0.00 eV  Normal BFGS step
 
   ------------------- Entering Geometric Direct Minimization ------------------
   GDM::trust : actual energy change is       -2.086536123761107E-002
   GDM::trust : predicted energy change was   -9.214125020772601E-002
   GDM::trust : updated trust radius is        0.330000000000000     
   GDM:         diagonal hessian shift is      0.000000000000000E+000
   GDM::PreWSS: input subspace size is                 16
   GDM::PreWSS: working subspace size set to           16
   GDM::PrEWSS: # of linearly dependent vectors =            0
   GDM::PrEWSS: Max dev from orthonormality =   2.545913826978996E-011
   GDM::BFGS:   lowest Hinv e-value    0.156123588964133     
   GDM::BFGS:   highest Hinv e-value    2.39050143675471     
   GDM::      : max scaling in EWCs is          2.82842712474619     
   GDM::      : max rotation in step is        9.097278509094596E-002
   GDM::        grad.step =  -1.908960562727681E-002
   ------- Leaving GDM -- hopefully with a step in the right direction! --------
 
   18    -594.8311928476      3.92E-02  Gap = 0.00 eV  Normal BFGS step
 
   ------------------- Entering Geometric Direct Minimization ------------------
   GDM::trust : actual energy change is       -1.078641599156072E-002
   GDM::trust : predicted energy change was   -2.863440844091522E-002
   GDM::trust : updated trust radius is        0.330000000000000     
   GDM:         diagonal hessian shift is      0.000000000000000E+000
   GDM::PreWSS: input subspace size is                 17
   GDM::PreWSS: working subspace size set to           17
   GDM::PrEWSS: # of linearly dependent vectors =            0
   GDM::PrEWSS: Max dev from orthonormality =   6.539199737254364E-012
   GDM::BFGS:   lowest Hinv e-value    0.164654471548007     
   GDM::BFGS:   highest Hinv e-value    2.50965161831852     
   GDM::      : max scaling in EWCs is          2.82842712474619     
   GDM::      : max rotation in step is        0.120486578662566     
   GDM::        grad.step =  -9.394061215837097E-003
   ------- Leaving GDM -- hopefully with a step in the right direction! --------
 
   19    -594.8419792636      2.67E-02  Gap = 0.00 eV  Normal BFGS step
 
   ------------------- Entering Geometric Direct Minimization ------------------
   GDM::trust : actual energy change is       -4.509412315428563E-003
   GDM::trust : predicted energy change was   -1.409109182375565E-002
   GDM::trust : updated trust radius is        0.330000000000000     
   GDM:         diagonal hessian shift is      0.000000000000000E+000
   GDM::PreWSS: input subspace size is                 18
   GDM::PreWSS: working subspace size set to           18
   GDM::PrEWSS: # of linearly dependent vectors =            0
   GDM::PrEWSS: Max dev from orthonormality =   1.917800987460971E-011
   GDM::BFGS:   lowest Hinv e-value    0.168359905420011     
   GDM::BFGS:   highest Hinv e-value    3.70086974342226     
   GDM::      : max scaling in EWCs is          2.82842712474619     
   GDM::      : max rotation in step is        0.130900846645264     
   GDM::        grad.step =  -4.431737240511821E-003
   ------- Leaving GDM -- hopefully with a step in the right direction! --------
 
   20    -594.8464886760      2.35E-02  Gap = 0.00 eV  Normal BFGS step
 
   ------------------- Entering Geometric Direct Minimization ------------------
   GDM::trust : actual energy change is       -2.049973272164607E-003
   GDM::trust : predicted energy change was   -6.647605860767731E-003
   GDM::trust : updated trust radius is        0.330000000000000     
   GDM:         diagonal hessian shift is      0.000000000000000E+000
   GDM::PreWSS: input subspace size is                 19
   GDM::PreWSS: working subspace size set to           18
   GDM::PrEWSS: # of linearly dependent vectors =            0
   GDM::PrEWSS: Max dev from orthonormality =   1.307164446129327E-011
   GDM::BFGS:   lowest Hinv e-value    0.173575216640602     
   GDM::BFGS:   highest Hinv e-value    3.29774210332716     
   GDM::      : max scaling in EWCs is          2.82842712474619     
   GDM::      : max rotation in step is       -2.329943793497644E-002
   GDM::        grad.step =  -1.556567305643092E-003
   ------- Leaving GDM -- hopefully with a step in the right direction! --------
 
   21    -594.8485386492      1.23E-02  Gap = 0.00 eV  Normal BFGS step
 
   ------------------- Entering Geometric Direct Minimization ------------------
   GDM::trust : actual energy change is       -5.605721175925282E-004
   GDM::trust : predicted energy change was   -2.334850958464638E-003
   GDM::trust : updated trust radius is        0.330000000000000     
   GDM:         diagonal hessian shift is      0.000000000000000E+000
   GDM::PreWSS: input subspace size is                 19
   GDM::PreWSS: working subspace size set to           18
   GDM::PrEWSS: # of linearly dependent vectors =            0
   GDM::PrEWSS: Max dev from orthonormality =   1.134203841957060E-011
   GDM::BFGS:   lowest Hinv e-value    0.169435918358698     
   GDM::BFGS:   highest Hinv e-value    3.31556803704570     
   GDM::      : max scaling in EWCs is          2.82842712474619     
   GDM::      : max rotation in step is       -1.225752768955759E-002
   GDM::        grad.step =  -3.758919302322269E-004
   ------- Leaving GDM -- hopefully with a step in the right direction! --------
 
   22    -594.8490992213      8.63E-03  Gap = 0.00 eV  Normal BFGS step
 
   ------------------- Entering Geometric Direct Minimization ------------------
   GDM::trust : actual energy change is       -1.335342346919788E-004
   GDM::trust : predicted energy change was   -5.638378953483403E-004
   GDM::trust : updated trust radius is        0.330000000000000     
   GDM:         diagonal hessian shift is      0.000000000000000E+000
   GDM::PreWSS: input subspace size is                 19
   GDM::PreWSS: working subspace size set to           18
   GDM::PrEWSS: # of linearly dependent vectors =            0
   GDM::PrEWSS: Max dev from orthonormality =   4.050324312054876E-011
   GDM::BFGS:   lowest Hinv e-value    0.171216329649442     
   GDM::BFGS:   highest Hinv e-value    3.20560607332396     
   GDM::      : max scaling in EWCs is          2.82842712474619     
   GDM::      : max rotation in step is        9.545253131324734E-003
   GDM::        grad.step =  -1.059466797066771E-004
   ------- Leaving GDM -- hopefully with a step in the right direction! --------
 
   23    -594.8492327556      2.52E-03  Gap = 0.00 eV  Normal BFGS step
 
   ------------------- Entering Geometric Direct Minimization ------------------
   GDM::trust : actual energy change is       -5.030618308410340E-005
   GDM::trust : predicted energy change was   -1.589200195600156E-004
   GDM::trust : updated trust radius is        0.330000000000000     
   GDM:         diagonal hessian shift is      0.000000000000000E+000
   GDM::PreWSS: input subspace size is                 19
   GDM::PreWSS: working subspace size set to           18
   GDM::PrEWSS: # of linearly dependent vectors =            0
   GDM::PrEWSS: Max dev from orthonormality =   8.119907524140046E-012
   GDM::BFGS:   lowest Hinv e-value    0.170405677276919     
   GDM::BFGS:   highest Hinv e-value    3.48286591916199     
   GDM::      : max scaling in EWCs is          2.82842712474619     
   GDM::      : max rotation in step is        4.004948892686809E-003
   GDM::        grad.step =  -1.893057715794762E-005
   ------- Leaving GDM -- hopefully with a step in the right direction! --------
 
   24    -594.8492830618      1.76E-03  Gap = 0.00 eV  Normal BFGS step
 
   ------------------- Entering Geometric Direct Minimization ------------------
   GDM::trust : actual energy change is       -1.135564934884314E-005
   GDM::trust : predicted energy change was   -2.839586573692143E-005
   GDM::trust : updated trust radius is        0.330000000000000     
   GDM:         diagonal hessian shift is      0.000000000000000E+000
   GDM::PreWSS: input subspace size is                 19
   GDM::PreWSS: working subspace size set to           18
   GDM::PrEWSS: # of linearly dependent vectors =            0
   GDM::PrEWSS: Max dev from orthonormality =   1.215323675030078E-011
   GDM::BFGS:   lowest Hinv e-value    0.171427760449506     
   GDM::BFGS:   highest Hinv e-value    3.03460025589665     
   GDM::      : max scaling in EWCs is          2.82842712474619     
   GDM::      : max rotation in step is        5.467313544130155E-003
   GDM::        grad.step =  -8.695605049531494E-006
   ------- Leaving GDM -- hopefully with a step in the right direction! --------
 
   25    -594.8492944174      1.39E-03  Gap = 0.00 eV  Normal BFGS step
 
   ------------------- Entering Geometric Direct Minimization ------------------
   GDM::trust : actual energy change is       -4.921442609884252E-006
   GDM::trust : predicted energy change was   -1.304340757429724E-005
   GDM::trust : updated trust radius is        0.330000000000000     
   GDM:         diagonal hessian shift is      0.000000000000000E+000
   GDM::PreWSS: input subspace size is                 19
   GDM::PreWSS: working subspace size set to           18
   GDM::PrEWSS: # of linearly dependent vectors =            0
   GDM::PrEWSS: Max dev from orthonormality =   1.944394645292391E-011
   GDM::BFGS:   lowest Hinv e-value    0.173254296076603     
   GDM::BFGS:   highest Hinv e-value    3.67188718978931     
   GDM::      : max scaling in EWCs is          2.82842712474619     
   GDM::      : max rotation in step is        3.859167089522671E-003
   GDM::        grad.step =  -2.603767274379163E-006
   ------- Leaving GDM -- hopefully with a step in the right direction! --------
 
   26    -594.8492993389      9.82E-04  Gap = 0.00 eV  Normal BFGS step
 
   ------------------- Entering Geometric Direct Minimization ------------------
   GDM::trust : actual energy change is       -1.407320723956218E-006
   GDM::trust : predicted energy change was   -3.905650911568745E-006
   GDM::trust : updated trust radius is        0.330000000000000     
   GDM:         diagonal hessian shift is      0.000000000000000E+000
   GDM::PreWSS: input subspace size is                 19
   GDM::PreWSS: working subspace size set to           18
   GDM::PrEWSS: # of linearly dependent vectors =            0
   GDM::PrEWSS: Max dev from orthonormality =   1.164844956602629E-011
   GDM::BFGS:   lowest Hinv e-value    0.172807893682181     
   GDM::BFGS:   highest Hinv e-value    5.57717143875781     
   GDM::      : max scaling in EWCs is          2.82842712474619     
   GDM::      : max rotation in step is        4.622091727469886E-003
   GDM::        grad.step =  -2.643384939521525E-006
   ------- Leaving GDM -- hopefully with a step in the right direction! --------
 
   27    -594.8493007462      6.71E-04  Gap = 0.00 eV  Normal BFGS step
 
   ------------------- Entering Geometric Direct Minimization ------------------
   GDM::trust : actual energy change is        2.367558749938325E-006
   GDM::trust : predicted energy change was   -3.965077409282288E-006
   GDM::trust : updated trust radius is        0.108900000000000     
   GDM::search:  On step            1 .  The current bracket is:
       left   : x =  0.0000E+00, e =      -594.8493007462, g = -0.4475E-03
       current: x =  0.5907E-02, e =      -594.8492983786, g =  0.1249E-02
       right  : x =  0.1000E+04, e =      1000.0000000000, g =  0.1000E+04
       next   : x =  0.1558E-02
   GDM::      : max rotation in step is        1.219128413594082E-003
   ------- Leaving GDM -- hopefully with a step in the right direction! --------
 
   28    -594.8492983786      1.30E-03  Gap = 0.00 eV  Line search: overstep
 
   ------------------- Entering Geometric Direct Minimization ------------------
   GDM::trust : actual energy change is       -3.486115929263178E-007
   GDM::trust : predicted energy change was   -3.965077409282288E-006
   GDM::trust : updated trust radius is        0.108900000000000     
   GDM:         diagonal hessian shift is      0.000000000000000E+000
   GDM::PreWSS: input subspace size is                 19
   GDM::PreWSS: working subspace size set to           18
   GDM::PrEWSS: # of linearly dependent vectors =            0
   GDM::PrEWSS: Max dev from orthonormality =   7.592353967744714E-010
   GDM::BFGS:   lowest Hinv e-value    0.174627202401118     
   GDM::BFGS:   highest Hinv e-value    4.09699898907567     
   GDM::      : max scaling in EWCs is          2.82842712474619     
   GDM::      : max rotation in step is        1.276402667800129E-003
   GDM::        grad.step =  -6.047174169581924E-007
   ------- Leaving GDM -- hopefully with a step in the right direction! --------
 
   29    -594.8493010948      4.59E-04  Gap = 0.00 eV  Normal BFGS step
 
   ------------------- Entering Geometric Direct Minimization ------------------
   GDM::trust : actual energy change is       -2.950951056845952E-007
   GDM::trust : predicted energy change was   -9.070761254372889E-007
   GDM::trust : updated trust radius is        0.330000000000000     
   GDM:         diagonal hessian shift is      0.000000000000000E+000
   GDM::PreWSS: input subspace size is                 19
   GDM::PreWSS: working subspace size set to           18
   GDM::PrEWSS: # of linearly dependent vectors =            0
   GDM::PrEWSS: Max dev from orthonormality =   5.460574631355186E-010
   GDM::BFGS:   lowest Hinv e-value    0.173185704698968     
   GDM::BFGS:   highest Hinv e-value    3.91208071808959     
   GDM::      : max scaling in EWCs is          2.82842712474619     
   GDM::      : max rotation in step is        3.119743441739554E-004
   GDM::        grad.step =  -1.081005184707302E-007
   ------- Leaving GDM -- hopefully with a step in the right direction! --------
 
   30    -594.8493013899      1.05E-04  Gap = 0.00 eV  Normal BFGS step
 
   ------------------- Entering Geometric Direct Minimization ------------------
   GDM::trust : actual energy change is       -3.861282493744511E-008
   GDM::trust : predicted energy change was   -1.621507777060952E-007
   GDM::trust : updated trust radius is        0.330000000000000     
   GDM:         diagonal hessian shift is      0.000000000000000E+000
   GDM::PreWSS: input subspace size is                 19
   GDM::PreWSS: working subspace size set to           18
   GDM::PrEWSS: # of linearly dependent vectors =            0
   GDM::PrEWSS: Max dev from orthonormality =   3.176479912436747E-011
   GDM::BFGS:   lowest Hinv e-value    0.173655457350708     
   GDM::BFGS:   highest Hinv e-value    3.95060298443886     
   GDM::      : max scaling in EWCs is          2.82842712474619     
   GDM::      : max rotation in step is        1.184834809425684E-004
   GDM::        grad.step =  -1.511033464695999E-008
   ------- Leaving GDM -- hopefully with a step in the right direction! --------
 
   31    -594.8493014285      3.52E-05  Gap = 0.00 eV  Normal BFGS step
 
   ------------------- Entering Geometric Direct Minimization ------------------
   GDM::trust : actual energy change is       -7.726157491561025E-009
   GDM::trust : predicted energy change was   -2.266550197043999E-008
   GDM::trust : updated trust radius is        0.330000000000000     
   GDM:         diagonal hessian shift is      0.000000000000000E+000
   GDM::PreWSS: input subspace size is                 19
   GDM::PreWSS: working subspace size set to           18
   GDM::PrEWSS: # of linearly dependent vectors =            0
   GDM::PrEWSS: Max dev from orthonormality =   1.290147821908505E-009
   GDM::BFGS:   lowest Hinv e-value    0.173459666918758     
   GDM::BFGS:   highest Hinv e-value    4.01386017605003     
   GDM::      : max scaling in EWCs is          2.82842712474619     
   GDM::      : max rotation in step is       -5.651447436364639E-005
   GDM::        grad.step =  -1.458087103491599E-009
   ------- Leaving GDM -- hopefully with a step in the right direction! --------
 
   32    -594.8493014362      2.43E-05  Gap = 0.00 eV  Normal BFGS step
 
   ------------------- Entering Geometric Direct Minimization ------------------
   GDM::trust : actual energy change is       -1.571379470988177E-009
   GDM::trust : predicted energy change was   -2.187130655237397E-009
   GDM::trust : updated trust radius is        0.330000000000000     
   GDM::search:  On step            1 .  The current bracket is:
       left   : x =  0.0000E+00, e =      -594.8493014362, g = -0.1949E-04
       current: x =  0.7482E-04, e =      -594.8493014378, g = -0.2250E-04
       right  : x =  0.1000E+04, e =      1000.0000000000, g =  0.1000E+04
       next   : x =  0.7482E-03
   GDM::      : max rotation in step is       -5.651447436364639E-004
   ------- Leaving GDM -- hopefully with a step in the right direction! --------
 
   33    -594.8493014378      3.96E-06  Gap = 0.00 eV  Line search: understep
 
   ------------------- Entering Geometric Direct Minimization ------------------
   GDM::trust : actual energy change is       -2.584010871942155E-008
   GDM::trust : predicted energy change was   -2.187130655237397E-009
   GDM::trust : updated trust radius is        0.330000000000000     
   GDM::search:  On step            2 .  The current bracket is:
       left   : x =  0.7482E-04, e =      -594.8493014378, g = -0.2250E-04
       current: x =  0.7482E-03, e =      -594.8493014621, g = -0.4959E-04
       right  : x =  0.1000E+04, e =         0.0000000000, g =  0.0000E+00
       next   : x =  0.6808E-02
   GDM::      : max rotation in step is       -5.142817167091821E-003
   ------- Leaving GDM -- hopefully with a step in the right direction! --------
 
   34    -594.8493014621      2.06E-05  Gap = 0.00 eV  Line search: understep
 
   ------------------- Entering Geometric Direct Minimization ------------------
   GDM::trust : actual energy change is       -1.066374920810631E-006
   GDM::trust : predicted energy change was   -2.187130655237397E-009
   GDM::trust : updated trust radius is        0.330000000000000     
   GDM::search:  On step            3 .  The current bracket is:
       left   : x =  0.7482E-03, e =      -594.8493014621, g = -0.4959E-04
       current: x =  0.6808E-02, e =      -594.8493025026, g = -0.2940E-03
       right  : x =  0.1000E+04, e =         0.0000000000, g =  0.0000E+00
       next   : x =  0.6135E-01
   GDM::      : max rotation in step is       -4.634186897819004E-002
   ------- Leaving GDM -- hopefully with a step in the right direction! --------
 
   35    -594.8493025026      1.64E-04  Gap = 0.00 eV  Line search: understep
 
   ------------------- Entering Geometric Direct Minimization ------------------
   GDM::trust : actual energy change is       -7.776941947668092E-005
   GDM::trust : predicted energy change was   -2.187130655237397E-009
   GDM::trust : updated trust radius is        0.330000000000000     
   GDM::search:  On step            4 .  The current bracket is:
       left   : x =  0.6808E-02, e =      -594.8493025026, g = -0.2940E-03
       current: x =  0.6135E-01, e =      -594.8493792056, g = -0.2526E-02
       right  : x =  0.1000E+04, e =         0.0000000000, g =  0.0000E+00
       next   : x =  0.5522E+00
   GDM::      : max rotation in step is       -0.417133335278074     
   ------- Leaving GDM -- hopefully with a step in the right direction! --------
 
   36    -594.8493792056      1.01E-03  Gap = 0.00 eV  Line search: understep
 
   ------------------- Entering Geometric Direct Minimization ------------------
   GDM::trust : actual energy change is       -5.081759489371507E-003
   GDM::trust : predicted energy change was   -2.187130655237397E-009
   GDM::trust : updated trust radius is        0.330000000000000     
   GDM:         diagonal hessian shift is      0.000000000000000E+000
   GDM::PreWSS: input subspace size is                 19
   GDM::PreWSS: working subspace size set to           18
   GDM::PrEWSS: # of linearly dependent vectors =            0
   GDM::PrEWSS: Max dev from orthonormality =   7.225157971912921E-013
   GDM::BFGS:   lowest Hinv e-value   -4.304785405140471E-002
   GDM::BFGS:   highest Hinv e-value    209.662331809540     
   GDM::BFGS:   rebuilding Hinv to be positive definite
   GDM::      : max scaling in EWCs is          2.82842712474619     
   GDM::      : max rotation in step is        0.314970472381817     
   GDM::        grad.step =  -8.121956127020189E-003
   ------- Leaving GDM -- hopefully with a step in the right direction! --------
 
   37    -594.8543831957      3.14E-01  Gap = 0.00 eV  Normal BFGS step
 
   ------------------- Entering Geometric Direct Minimization ------------------
   GDM::trust : actual energy change is        4.696929900433133E-003
   GDM::trust : predicted energy change was   -1.218293419053051E-002
   GDM::trust : updated trust radius is        0.108900000000000     
   GDM::search:  On step            1 .  The current bracket is:
       left   : x =  0.0000E+00, e =      -594.8543831957, g = -0.1626E-01
       current: x =  0.4994E+00, e =      -594.8496862658, g =  0.3017E-01
       right  : x =  0.1000E+04, e =      1000.0000000000, g =  0.1000E+04
       next   : x =  0.1582E+00
   GDM::      : max rotation in step is        9.978153922709333E-002
   ------- Leaving GDM -- hopefully with a step in the right direction! --------
 
   38    -594.8496862658      6.15E-03  Gap = 0.00 eV  Line search: overstep
 
   ------------------- Entering Geometric Direct Minimization ------------------
   GDM::trust : actual energy change is       -1.088422367615749E-003
   GDM::trust : predicted energy change was   -1.218293419053051E-002
   GDM::trust : updated trust radius is        0.108900000000000     
   GDM:         diagonal hessian shift is      0.000000000000000E+000
   GDM::PreWSS: input subspace size is                 19
   GDM::PreWSS: working subspace size set to           18
   GDM::PrEWSS: # of linearly dependent vectors =            0
   GDM::PrEWSS: Max dev from orthonormality =   8.494323300300977E-012
   GDM::BFGS:   lowest Hinv e-value    0.144174083438319     
   GDM::BFGS:   highest Hinv e-value    18.0869013749251     
   GDM::      : max scaling in EWCs is          2.82842712474619     
   GDM::      : max rotation in step is       -0.209747317974370     
   GDM::        grad.step =  -3.013233493251535E-002
   ------- Leaving GDM -- hopefully with a step in the right direction! --------
 
   39    -594.8554716181      2.19E-01  Gap = 0.00 eV  Descent step
 
   ------------------- Entering Geometric Direct Minimization ------------------
   GDM::trust : actual energy change is       -2.661458224793023E-002
   GDM::trust : predicted energy change was   -4.937377645361885E-002
   GDM::trust : updated trust radius is        0.330000000000000     
   GDM:         diagonal hessian shift is      0.000000000000000E+000
   GDM::PreWSS: input subspace size is                 19
   GDM::PreWSS: working subspace size set to           18
   GDM::PrEWSS: # of linearly dependent vectors =            0
   GDM::PrEWSS: Max dev from orthonormality =   7.944117585978461E-012
   GDM::BFGS:   lowest Hinv e-value    7.703045732063074E-002
   GDM::BFGS:   highest Hinv e-value    61.0024280183493     
   GDM::      : max scaling in EWCs is          2.82842712474619     
   GDM::      : max rotation in step is       -0.845719214726522     
   GDM::        grad.step =  -0.127220097465511     
   ------- Leaving GDM -- hopefully with a step in the right direction! --------
 
   40    -594.8820862003      3.49E-01  Gap = 0.00 eV  Descent step
 
   ------------------- Entering Geometric Direct Minimization ------------------
   GDM::trust : actual energy change is       -8.804612050380456E-002
   GDM::trust : predicted energy change was   -0.411374239597516     
   GDM::trust : updated trust radius is        0.330000000000000     
   GDM:         diagonal hessian shift is      0.000000000000000E+000
   GDM::PreWSS: input subspace size is                 19
   GDM::PreWSS: working subspace size set to           18
   GDM::PrEWSS: # of linearly dependent vectors =            0
   GDM::PrEWSS: Max dev from orthonormality =   6.206077318715586E-012
   GDM::BFGS:   lowest Hinv e-value    0.156495091888132     
   GDM::BFGS:   highest Hinv e-value    134.879571073196     
   GDM::      : max scaling in EWCs is          2.82842712474619     
   GDM::      : max rotation in step is       -0.307162733590340     
   GDM::        grad.step =  -0.159242714736921     
   ------- Leaving GDM -- hopefully with a step in the right direction! --------
 
   41    -594.9701323208      1.92E-01  Gap = 0.00 eV  Descent step
 
   ------------------- Entering Geometric Direct Minimization ------------------
   GDM::trust : actual energy change is        0.115434213222557     
   GDM::trust : predicted energy change was   -0.289654413908365     
   GDM::trust : updated trust radius is        0.108900000000000     
   GDM::search:  On step            1 .  The current bracket is:
       left   : x =  0.0000E+00, e =      -594.9701323208, g = -0.2815E+00
       current: x =  0.5657E+00, e =      -594.8546981076, g =  0.6686E+00
       right  : x =  0.1000E+04, e =      1000.0000000000, g =  0.1000E+04
       next   : x =  0.1640E+00
   GDM::      : max rotation in step is       -8.903810728900287E-002
   ------- Leaving GDM -- hopefully with a step in the right direction! --------
 
   42    -594.8546981076      8.79E-02  Gap = 0.00 eV  Line search: overstep
 
   ------------------- Entering Geometric Direct Minimization ------------------
   GDM::trust : actual energy change is       -2.336535251629357E-002
   GDM::trust : predicted energy change was   -0.289654413908365     
   GDM::trust : updated trust radius is        0.108900000000000     
   GDM:         diagonal hessian shift is      0.000000000000000E+000
   GDM::PreWSS: input subspace size is                 19
   GDM::PreWSS: working subspace size set to           18
   GDM::PrEWSS: # of linearly dependent vectors =            0
   GDM::PrEWSS: Max dev from orthonormality =   1.314132136442936E-011
   GDM::BFGS:   lowest Hinv e-value    0.176750462487350     
   GDM::BFGS:   highest Hinv e-value    117.233541041906     
   GDM::      : max scaling in EWCs is          2.82842712474619     
   GDM::      : max rotation in step is       -9.509822847353090E-002
   GDM::        grad.step =  -1.446427956953827E-002
   ------- Leaving GDM -- hopefully with a step in the right direction! --------
 
   43    -594.9934976733      6.72E-02  Gap = 0.00 eV  Descent step
 
   ------------------- Entering Geometric Direct Minimization ------------------
   GDM::trust : actual energy change is       -5.439788213152497E-003
   GDM::trust : predicted energy change was   -1.910096176116269E-002
   GDM::trust : updated trust radius is        0.330000000000000     
   GDM:         diagonal hessian shift is      0.000000000000000E+000
   GDM::PreWSS: input subspace size is                 19
   GDM::PreWSS: working subspace size set to           18
   GDM::PrEWSS: # of linearly dependent vectors =            0
   GDM::PrEWSS: Max dev from orthonormality =   8.876399615331820E-012
   GDM::BFGS:   lowest Hinv e-value    0.188180742970456     
   GDM::BFGS:   highest Hinv e-value    103.120349567011     
   GDM::trust : dogleg step length is          0.330000000000000     
   GDM::      : max scaling in EWCs is          2.82842712474619     
   GDM::      : max rotation in step is       -0.252024010409352     
   GDM::        grad.step =  -4.300933771674814E-002
   ------- Leaving GDM -- hopefully with a step in the right direction! --------
 
   44    -594.9989374616      7.02E-02  Gap = 0.00 eV  Dog-leg BFGS step
 
   ------------------- Entering Geometric Direct Minimization ------------------
   GDM::trust : actual energy change is        4.468591532827304E-002
   GDM::trust : predicted energy change was   -0.106795978726094     
   GDM::trust : updated trust radius is        0.108900000000000     
   GDM::search:  On step            1 .  The current bracket is:
       left   : x =  0.0000E+00, e =      -594.9989374616, g = -0.8138E-01
       current: x =  0.5285E+00, e =      -594.9542515462, g =  0.2291E+00
       right  : x =  0.1000E+04, e =      1000.0000000000, g =  0.1000E+04
       next   : x =  0.1296E+00
   GDM::      : max rotation in step is       -6.180143964497319E-002
   ------- Leaving GDM -- hopefully with a step in the right direction! --------
 
   45    -594.9542515462      2.14E-01  Gap = 0.00 eV  Line search: overstep
 
   ------------------- Entering Geometric Direct Minimization ------------------
   GDM::trust : actual energy change is       -4.832683607446597E-003
   GDM::trust : predicted energy change was   -0.106795978726094     
   GDM::trust : updated trust radius is        0.108900000000000     
   GDM:         diagonal hessian shift is      0.000000000000000E+000
   GDM::PreWSS: input subspace size is                 19
   GDM::PreWSS: working subspace size set to           18
   GDM::PrEWSS: # of linearly dependent vectors =            0
   GDM::PrEWSS: Max dev from orthonormality =   5.888473736392896E-012
   GDM::BFGS:   lowest Hinv e-value    0.178957803798531     
   GDM::BFGS:   highest Hinv e-value    36.2279880585615     
   GDM::      : max scaling in EWCs is          2.78011210672398     
   GDM::      : max rotation in step is        0.219489341179229     
   GDM::        grad.step =  -1.458372137836710E-002
   ------- Leaving GDM -- hopefully with a step in the right direction! --------
 
   46    -595.0037701452      1.18E-01  Gap = 0.00 eV  Descent step
 
   ------------------- Entering Geometric Direct Minimization ------------------
   GDM::trust : actual energy change is       -1.152143700880970E-002
   GDM::trust : predicted energy change was   -2.436146424947919E-002
   GDM::trust : updated trust radius is        0.330000000000000     
   GDM:         diagonal hessian shift is      0.000000000000000E+000
   GDM::PreWSS: input subspace size is                 19
   GDM::PreWSS: working subspace size set to           18
   GDM::PrEWSS: # of linearly dependent vectors =            0
   GDM::PrEWSS: Max dev from orthonormality =   6.827975684853271E-012
   GDM::BFGS:   lowest Hinv e-value    7.038459055327993E-002
   GDM::BFGS:   highest Hinv e-value    59.2373635405214     
   GDM::trust : dogleg step length is          0.330000000000000     
   GDM::      : max scaling in EWCs is          2.82842712474619     
   GDM::      : max rotation in step is        0.605637241523016     
   GDM::        grad.step =  -0.108540560438063     
   ------- Leaving GDM -- hopefully with a step in the right direction! --------
 
   47    -595.0152915822      2.12E-01  Gap = 0.00 eV  Dog-leg BFGS step
 
   ------------------- Entering Geometric Direct Minimization ------------------
   GDM::trust : actual energy change is       -2.881504996139483E-002
   GDM::trust : predicted energy change was   -0.711191839237841     
   GDM::trust : updated trust radius is        0.330000000000000     
   GDM:         diagonal hessian shift is      0.000000000000000E+000
   GDM::PreWSS: input subspace size is                 19
   GDM::PreWSS: working subspace size set to           18
   GDM::PrEWSS: # of linearly dependent vectors =            0
   GDM::PrEWSS: Max dev from orthonormality =   3.314702679002579E-012
   GDM::BFGS:   lowest Hinv e-value    0.129378047519622     
   GDM::BFGS:   highest Hinv e-value    160.388787541972     
   GDM::      : max scaling in EWCs is          2.82842712474619     
   GDM::      : max rotation in step is       -0.316915244658631     
   GDM::        grad.step =  -0.288362123410935     
   ------- Leaving GDM -- hopefully with a step in the right direction! --------
 
   48    -595.0441066321      3.44E-01  Gap = 0.00 eV  Descent step
 
   ------------------- Entering Geometric Direct Minimization ------------------
   GDM::trust : actual energy change is        3.064204053544017E-002
   GDM::trust : predicted energy change was   -0.494480582071656     
   GDM::trust : updated trust radius is        0.108900000000000     
   GDM::search:  On step            1 .  The current bracket is:
       left   : x =  0.0000E+00, e =      -595.0441066321, g = -0.4930E+00
       current: x =  0.5849E+00, e =      -595.0134645916, g =  0.6284E+00
       right  : x =  0.1000E+04, e =      1000.0000000000, g =  0.1000E+04
       next   : x =  0.2643E+00
   GDM::      : max rotation in step is       -0.143236927945588     
   ------- Leaving GDM -- hopefully with a step in the right direction! --------
 
   49    -595.0134645916      7.75E-02  Gap = 0.00 eV  Line search: overstep
 
   ------------------- Entering Geometric Direct Minimization ------------------
   GDM::trust : actual energy change is       -6.883300094284550E-002
   GDM::trust : predicted energy change was   -0.494480582071656     
   GDM::trust : updated trust radius is        0.108900000000000     
   GDM:         diagonal hessian shift is      0.000000000000000E+000
   GDM::PreWSS: input subspace size is                 19
   GDM::PreWSS: working subspace size set to           18
   GDM::PrEWSS: # of linearly dependent vectors =            0
   GDM::PrEWSS: Max dev from orthonormality =   8.048010174954712E-012
   GDM::BFGS:   lowest Hinv e-value    0.203736197015460     
   GDM::BFGS:   highest Hinv e-value    128.776793440839     
   GDM::      : max scaling in EWCs is          2.69191360993075     
   GDM::      : max rotation in step is        0.180551037276558     
   GDM::        grad.step =  -2.829157500442744E-002
   ------- Leaving GDM -- hopefully with a step in the right direction! --------
 
   50    -595.1129396331      2.12E-01  Gap = 0.00 eV  Descent step
 
   ------------------- Entering Geometric Direct Minimization ------------------
   GDM::trust : actual energy change is       -2.237851566405880E-002
   GDM::trust : predicted energy change was   -1.487896035035363E-002
   GDM::trust : updated trust radius is        0.330000000000000     
   GDM:         diagonal hessian shift is      0.000000000000000E+000
   GDM::PreWSS: input subspace size is                 19
   GDM::PreWSS: working subspace size set to           18
   GDM::PrEWSS: # of linearly dependent vectors =            0
   GDM::PrEWSS: Max dev from orthonormality =   9.570393089131102E-012
   GDM::BFGS:   lowest Hinv e-value    0.198688378163341     
   GDM::BFGS:   highest Hinv e-value    97.7405465039541     
   GDM::trust : dogleg step length is          0.330000000000000     
   GDM::      : max scaling in EWCs is          2.65100892292756     
   GDM::      : max rotation in step is        0.449685059899810     
   GDM::        grad.step =  -5.196868880692369E-002
   ------- Leaving GDM -- hopefully with a step in the right direction! --------
 
   51    -595.1353181487      1.28E-01  Gap = 0.00 eV  Dog-leg BFGS step
 
   ------------------- Entering Geometric Direct Minimization ------------------
   GDM::trust : actual energy change is        3.016695846019957E-002
   GDM::trust : predicted energy change was   -6.699807254990563E-002
   GDM::trust : updated trust radius is        0.108900000000000     
   GDM::search:  On step            1 .  The current bracket is:
       left   : x =  0.0000E+00, e =      -595.1353181487, g = -0.9435E-01
       current: x =  0.5508E+00, e =      -595.1051511903, g =  0.2187E+00
       right  : x =  0.1000E+04, e =      1000.0000000000, g =  0.1000E+04
       next   : x =  0.1742E+00
   GDM::      : max rotation in step is        0.142261878469486     
   ------- Leaving GDM -- hopefully with a step in the right direction! --------
 
   52    -595.1051511903      1.02E-01  Gap = 0.00 eV  Line search: overstep
 
   ------------------- Entering Geometric Direct Minimization ------------------
   GDM::trust : actual energy change is       -8.852764329731144E-003
   GDM::trust : predicted energy change was   -6.699807254990563E-002
   GDM::trust : updated trust radius is        0.108900000000000     
   GDM:         diagonal hessian shift is      0.000000000000000E+000
   GDM::PreWSS: input subspace size is                 19
   GDM::PreWSS: working subspace size set to           18
   GDM::PrEWSS: # of linearly dependent vectors =            0
   GDM::PrEWSS: Max dev from orthonormality =   2.078070354682993E-012
   GDM::BFGS:   lowest Hinv e-value    0.222235664904241     
   GDM::BFGS:   highest Hinv e-value    27.4314207479499     
   GDM::      : max scaling in EWCs is          2.78722609001471     
   GDM::      : max rotation in step is        5.073542728486149E-002
   GDM::        grad.step =  -1.703882762550909E-002
   ------- Leaving GDM -- hopefully with a step in the right direction! --------
 
   53    -595.1441709131      4.51E-02  Gap = 19.92 eV  Descent step
 
   ------------------- Entering Geometric Direct Minimization ------------------
   GDM::trust : actual energy change is        1.011228766060412E-003
   GDM::trust : predicted energy change was   -2.783687334318309E-002
   GDM::trust : updated trust radius is        0.108900000000000     
   GDM::search:  On step            1 .  The current bracket is:
       left   : x =  0.0000E+00, e =      -595.1441709131, g = -0.1179E+00
       current: x =  0.1446E+00, e =      -595.1431596843, g =  0.1330E+00
       right  : x =  0.1000E+04, e =      1000.0000000000, g =  0.1000E+04
       next   : x =  0.6823E-01
   GDM::      : max rotation in step is        2.394652352490898E-002
   ------- Leaving GDM -- hopefully with a step in the right direction! --------
 
   54    -595.1431596843      4.44E-02  Gap = -148822.66 eV  Line search: overstep
 
   ------------------- Entering Geometric Direct Minimization ------------------
   GDM::trust : actual energy change is       -4.043080420046863E-003
   GDM::trust : predicted energy change was   -2.783687334318309E-002
   GDM::trust : updated trust radius is        0.108900000000000     
   GDM:         diagonal hessian shift is      0.000000000000000E+000
   GDM::PreWSS: input subspace size is                 19
   GDM::PreWSS: working subspace size set to           18
   GDM::PrEWSS: # of linearly dependent vectors =            0
   GDM::PrEWSS: Max dev from orthonormality =   6.155270737551177E-012
   GDM::BFGS:   lowest Hinv e-value    0.221104150974674     
   GDM::BFGS:   highest Hinv e-value    28.1945269168592     
   GDM::trust : dogleg step length is          0.108900000000000     
   GDM::      : max scaling in EWCs is          2.56544481605432     
   GDM::      : max rotation in step is       -9.413726627067730E-002
   GDM::        grad.step =  -1.140319847418656E-002
   ------- Leaving GDM -- hopefully with a step in the right direction! --------
 
   55    -595.1482139935      4.57E-02  Gap = -148822.66 eV  Dog-leg BFGS step
 
   ------------------- Entering Geometric Direct Minimization ------------------
   GDM::trust : actual energy change is        3.213469366983190E-003
   GDM::trust : predicted energy change was   -2.155643909583819E-002
   GDM::trust : updated trust radius is        3.593700000000000E-002
   GDM::search:  On step            1 .  The current bracket is:
       left   : x =  0.0000E+00, e =      -595.1482139935, g = -0.6487E-01
       current: x =  0.1758E+00, e =      -595.1450005241, g =  0.1027E+00
       right  : x =  0.1000E+04, e =      1000.0000000000, g =  0.1000E+04
       next   : x =  0.6857E-01
   GDM::      : max rotation in step is       -3.672061042799114E-002
   ------- Leaving GDM -- hopefully with a step in the right direction! --------
 
   56    -595.1450005241      5.61E-02  Gap = -148822.66 eV  Line search: overstep
 
   ------------------- Entering Geometric Direct Minimization ------------------
   GDM::trust : actual energy change is       -2.252229846476439E-003
   GDM::trust : predicted energy change was   -2.155643909583819E-002
   GDM::trust : updated trust radius is        3.593700000000000E-002
   GDM:         diagonal hessian shift is      0.000000000000000E+000
   GDM::PreWSS: input subspace size is                 19
   GDM::PreWSS: working subspace size set to           18
   GDM::PrEWSS: # of linearly dependent vectors =            0
   GDM::PrEWSS: Max dev from orthonormality =   8.002369600301762E-012
   GDM::BFGS:   lowest Hinv e-value    0.211895682999607     
   GDM::BFGS:   highest Hinv e-value    22.2385468215321     
   GDM::      : max scaling in EWCs is          2.64254497119352     
   GDM::      : max rotation in step is        2.104156733558373E-002
   GDM::        grad.step =  -3.012636509777439E-003
   ------- Leaving GDM -- hopefully with a step in the right direction! --------
 
   57    -595.1504662233      2.64E-02  Gap = -148822.66 eV  Descent step
 
   ------------------- Entering Geometric Direct Minimization ------------------
   GDM::trust : actual energy change is       -1.018752584172944E-003
   GDM::trust : predicted energy change was   -3.088413898324243E-003
   GDM::trust : updated trust radius is        0.330000000000000     
   GDM:         diagonal hessian shift is      0.000000000000000E+000
   GDM::PreWSS: input subspace size is                 19
   GDM::PreWSS: working subspace size set to           18
   GDM::PrEWSS: # of linearly dependent vectors =            0
   GDM::PrEWSS: Max dev from orthonormality =   4.937175668295879E-012
   GDM::BFGS:   lowest Hinv e-value    0.206465986443864     
   GDM::BFGS:   highest Hinv e-value    21.1647361397772     
   GDM::      : max scaling in EWCs is          2.58371114251071     
   GDM::      : max rotation in step is       -0.160533354514266     
   GDM::        grad.step =  -5.742147353373763E-003
   ------- Leaving GDM -- hopefully with a step in the right direction! --------
 
   58    -595.1514849759      4.12E-02  Gap = -148822.66 eV  Normal BFGS step
 
   ------------------- Entering Geometric Direct Minimization ------------------
   GDM::trust : actual energy change is        2.323494229165135E-002
   GDM::trust : predicted energy change was   -8.613221030060646E-003
   GDM::trust : updated trust radius is        0.108900000000000     
   GDM::search:  On step            1 .  The current bracket is:
       left   : x =  0.0000E+00, e =      -595.1514849759, g = -0.2086E-01
       current: x =  0.2753E+00, e =      -595.1282500336, g =  0.1905E+00
       right  : x =  0.1000E+04, e =      1000.0000000000, g =  0.1000E+04
       next   : x =  0.2753E-01
   GDM::      : max rotation in step is       -1.605333545142660E-002
   ------- Leaving GDM -- hopefully with a step in the right direction! --------
 
   59    -595.1282500336      6.75E-02  Gap = -148822.66 eV  Line search: overstep
 
   ------------------- Entering Geometric Direct Minimization ------------------
   GDM::trust : actual energy change is       -2.886747372485843E-004
   GDM::trust : predicted energy change was   -8.613221030060646E-003
   GDM::trust : updated trust radius is        0.108900000000000     
   GDM:         diagonal hessian shift is      0.000000000000000E+000
   GDM::PreWSS: input subspace size is                 19
   GDM::PreWSS: working subspace size set to           18
   GDM::PrEWSS: # of linearly dependent vectors =            0
   GDM::PrEWSS: Max dev from orthonormality =   7.821795294793432E-012
   GDM::BFGS:   lowest Hinv e-value    0.229281624306226     
   GDM::BFGS:   highest Hinv e-value    9.50941984908212     
   GDM::trust : dogleg step length is          0.108900000000000     
   GDM::      : max scaling in EWCs is          2.54876761187759     
   GDM::      : max rotation in step is        0.104903063558605     
   GDM::        grad.step =  -6.359012017247971E-003
   ------- Leaving GDM -- hopefully with a step in the right direction! --------
 
   60    -595.1517736507      3.24E-02  Gap = -148822.66 eV  Dog-leg BFGS step
 
   ------------------- Entering Geometric Direct Minimization ------------------
   GDM::trust : actual energy change is        1.983497086712305E-003
   GDM::trust : predicted energy change was   -1.000046440050710E-002
   GDM::trust : updated trust radius is        3.593700000000000E-002
   GDM::search:  On step            1 .  The current bracket is:
       left   : x =  0.0000E+00, e =      -595.1517736507, g = -0.3547E-01
       current: x =  0.1793E+00, e =      -595.1497901536, g =  0.5843E-01
       right  : x =  0.1000E+04, e =      1000.0000000000, g =  0.1000E+04
       next   : x =  0.6833E-01
   GDM::      : max rotation in step is        3.998076798613413E-002
   ------- Leaving GDM -- hopefully with a step in the right direction! --------
 
   61    -595.1497901536      2.85E-02  Gap = -148822.66 eV  Line search: overstep
 
   ------------------- Entering Geometric Direct Minimization ------------------
   GDM::trust : actual energy change is       -1.227898924867077E-003
   GDM::trust : predicted energy change was   -1.000046440050710E-002
   GDM::trust : updated trust radius is        3.593700000000000E-002
   GDM:         diagonal hessian shift is      0.000000000000000E+000
   GDM::PreWSS: input subspace size is                 19
   GDM::PreWSS: working subspace size set to           18
   GDM::PrEWSS: # of linearly dependent vectors =            0
   GDM::PrEWSS: Max dev from orthonormality =   3.531697156944347E-011
   GDM::BFGS:   lowest Hinv e-value    0.216573518043531     
   GDM::BFGS:   highest Hinv e-value    9.27334952561535     
   GDM::trust : dogleg step length is          3.593700000000000E-002
   GDM::      : max scaling in EWCs is          2.59125814315803     
   GDM::      : max rotation in step is        2.403794094337170E-002
   GDM::        grad.step =  -7.657482303579830E-004
   ------- Leaving GDM -- hopefully with a step in the right direction! --------
 
   62    -595.1530015496      7.57E-03  Gap = -148822.66 eV  Dog-leg BFGS step
 
   ------------------- Entering Geometric Direct Minimization ------------------
   GDM::trust : actual energy change is        1.165487210528227E-004
   GDM::trust : predicted energy change was   -1.420499481834719E-003
   GDM::trust : updated trust radius is        1.185921000000000E-002
   GDM::search:  On step            1 .  The current bracket is:
       left   : x =  0.0000E+00, e =      -595.1530015496, g = -0.1535E-01
       current: x =  0.4987E-01, e =      -595.1528850009, g =  0.2018E-01
       right  : x =  0.1000E+04, e =      1000.0000000000, g =  0.1000E+04
       next   : x =  0.2164E-01
   GDM::      : max rotation in step is        1.043130133760720E-002
   ------- Leaving GDM -- hopefully with a step in the right direction! --------
 
   63    -595.1528850009      9.19E-03  Gap = -148822.66 eV  Line search: overstep
 
   ------------------- Entering Geometric Direct Minimization ------------------
   GDM::trust : actual energy change is       -1.669583302827959E-004
   GDM::trust : predicted energy change was   -1.420499481834719E-003
   GDM::trust : updated trust radius is        1.185921000000000E-002
   GDM:         diagonal hessian shift is      0.000000000000000E+000
   GDM::PreWSS: input subspace size is                 19
   GDM::PreWSS: working subspace size set to           18
   GDM::PrEWSS: # of linearly dependent vectors =            0
   GDM::PrEWSS: Max dev from orthonormality =   9.517973215134035E-012
   GDM::BFGS:   lowest Hinv e-value    0.248191427458135     
   GDM::BFGS:   highest Hinv e-value    5.58801211478383     
   GDM::      : max scaling in EWCs is          2.56799532158625     
   GDM::      : max rotation in step is        1.060635968584437E-002
   GDM::        grad.step =  -2.020352029344800E-004
   ------- Leaving GDM -- hopefully with a step in the right direction! --------
 
   64    -595.1531685079      6.30E-03  Gap = -148822.66 eV  Descent step
 
   ------------------- Entering Geometric Direct Minimization ------------------
   GDM::trust : actual energy change is       -1.806791067338054E-005
   GDM::trust : predicted energy change was   -3.291583217532672E-004
   GDM::trust : updated trust radius is        0.330000000000000     
   GDM:         diagonal hessian shift is      0.000000000000000E+000
   GDM::PreWSS: input subspace size is                 19
   GDM::PreWSS: working subspace size set to           18
   GDM::PrEWSS: # of linearly dependent vectors =            0
   GDM::PrEWSS: Max dev from orthonormality =   1.243202416012501E-011
   GDM::BFGS:   lowest Hinv e-value    0.213200340541919     
   GDM::BFGS:   highest Hinv e-value    5.56866658648962     
   GDM::      : max scaling in EWCs is          2.61068414370111     
   GDM::      : max rotation in step is        1.628464008444747E-002
   GDM::        grad.step =  -3.092842710893376E-004
   ------- Leaving GDM -- hopefully with a step in the right direction! --------
 
   65    -595.1531865758      8.80E-03  Gap = -148822.66 eV  Normal BFGS step
 
   ------------------- Entering Geometric Direct Minimization ------------------
   GDM::trust : actual energy change is        4.506774087076337E-005
   GDM::trust : predicted energy change was   -4.639264066340066E-004
   GDM::trust : updated trust radius is        0.108900000000000     
   GDM::search:  On step            1 .  The current bracket is:
       left   : x =  0.0000E+00, e =      -595.1531865758, g = -0.9135E-02
       current: x =  0.3386E-01, e =      -595.1531415081, g =  0.1179E-01
       right  : x =  0.1000E+04, e =      1000.0000000000, g =  0.1000E+04
       next   : x =  0.1478E-01
   GDM::      : max rotation in step is        7.106751010965967E-003
   ------- Leaving GDM -- hopefully with a step in the right direction! --------
 
   66    -595.1531415081      3.66E-03  Gap = 0.00 eV  Line search: overstep
 
   ------------------- Entering Geometric Direct Minimization ------------------
   GDM::trust : actual energy change is       -6.746777569333062E-005
   GDM::trust : predicted energy change was   -4.639264066340066E-004
   GDM::trust : updated trust radius is        0.108900000000000     
   GDM:         diagonal hessian shift is      0.000000000000000E+000
   GDM::PreWSS: input subspace size is                 19
   GDM::PreWSS: working subspace size set to           18
   GDM::PrEWSS: # of linearly dependent vectors =            0
   GDM::PrEWSS: Max dev from orthonormality =   6.617071127146268E-011
   GDM::BFGS:   lowest Hinv e-value    0.223515009632853     
   GDM::BFGS:   highest Hinv e-value    3.26384008973880     
   GDM::      : max scaling in EWCs is          2.58648301778971     
   GDM::      : max rotation in step is        2.856521932484826E-002
   GDM::        grad.step =  -3.443110177880949E-004
   ------- Leaving GDM -- hopefully with a step in the right direction! --------
 
   67    -595.1532540436      4.00E-03  Gap = 0.00 eV  Normal BFGS step
 
   ------------------- Entering Geometric Direct Minimization ------------------
   GDM::trust : actual energy change is        6.513255380014016E-005
   GDM::trust : predicted energy change was   -5.164665266821423E-004
   GDM::trust : updated trust radius is        0.108900000000000     
   GDM::search:  On step            1 .  The current bracket is:
       left   : x =  0.0000E+00, e =      -595.1532540436, g = -0.7316E-02
       current: x =  0.4706E-01, e =      -595.1531889110, g =  0.1014E-01
       right  : x =  0.1000E+04, e =      1000.0000000000, g =  0.1000E+04
       next   : x =  0.1979E-01
   GDM::      : max rotation in step is        1.201059244980618E-002
   ------- Leaving GDM -- hopefully with a step in the right direction! --------
 
   68    -595.1531889110      3.86E-03  Gap = 0.00 eV  Line search: overstep
 
   ------------------- Entering Geometric Direct Minimization ------------------
   GDM::trust : actual energy change is       -7.267136493283033E-005
   GDM::trust : predicted energy change was   -5.164665266821423E-004
   GDM::trust : updated trust radius is        0.108900000000000     
   GDM:         diagonal hessian shift is      0.000000000000000E+000
   GDM::PreWSS: input subspace size is                 19
   GDM::PreWSS: working subspace size set to           18
   GDM::PrEWSS: # of linearly dependent vectors =            0
   GDM::PrEWSS: Max dev from orthonormality =   6.533976137923503E-011
   GDM::BFGS:   lowest Hinv e-value    0.199585666531284     
   GDM::BFGS:   highest Hinv e-value    2.27714892409860     
   GDM::      : max scaling in EWCs is          2.58156793426485     
   GDM::      : max rotation in step is        6.165167273577484E-003
   GDM::        grad.step =  -1.339621372476476E-005
   ------- Leaving GDM -- hopefully with a step in the right direction! --------
 
[...]
   GDM::        grad.step =  -4.690613511608372E-010
   ------- Leaving GDM -- hopefully with a step in the right direction! --------
 
   11    -595.2182027965      4.63E-06  Gap = 0.00 eV  Normal BFGS step
 
   ------------------- Entering Geometric Direct Minimization ------------------
   GDM::trust : actual energy change is       -2.354454409214668E-010
   GDM::trust : predicted energy change was   -7.035920267412560E-010
   GDM::trust : updated trust radius is        0.330000000000000     
   GDM:         diagonal hessian shift is      0.000000000000000E+000
   GDM::PreWSS: input subspace size is                 11
   GDM::PreWSS: working subspace size set to           11
   GDM::PrEWSS: # of linearly dependent vectors =            9
   GDM::PrEWSS: Max dev from orthonormality =   1.035435626128844E-012
   GDM::BFGS:   lowest Hinv e-value    0.198475968111873     
   GDM::BFGS:   highest Hinv e-value    7.09887718550651     
   GDM::      : max scaling in EWCs is          2.65528528072587     
   GDM::      : max rotation in step is        6.284716009430232E-006
   GDM::        grad.step =  -8.990910356828777E-011
   ------- Leaving GDM -- hopefully with a step in the right direction! --------
 
   12    -595.2182027968      2.24E-06  Gap = 0.00 eV  Normal BFGS step
 
   ------------------- Entering Geometric Direct Minimization ------------------
   GDM::trust : actual energy change is       -5.024958227295429E-011
   GDM::trust : predicted energy change was   -1.348636553524317E-010
   GDM::trust : updated trust radius is        0.330000000000000     
   GDM:         diagonal hessian shift is      0.000000000000000E+000
   GDM::PreWSS: input subspace size is                 12
   GDM::PreWSS: working subspace size set to           12
   GDM::PrEWSS: # of linearly dependent vectors =           10
   GDM::PrEWSS: Max dev from orthonormality =   6.403558239220786E-013
   GDM::BFGS:   lowest Hinv e-value    0.198288315131500     
   GDM::BFGS:   highest Hinv e-value    7.01232805947510     
   GDM::      : max scaling in EWCs is          2.65529289079292     
   GDM::      : max rotation in step is        4.766955844628142E-006
   GDM::        grad.step =  -1.378875785298699E-011
   ------- Leaving GDM -- hopefully with a step in the right direction! --------
 
   13    -595.2182027968      9.57E-07  Gap = 0.00 eV  Normal BFGS step
 
   ------------------- Entering Geometric Direct Minimization ------------------
   GDM::trust : actual energy change is       -8.071765478234738E-012
   GDM::trust : predicted energy change was   -2.068313677948048E-011
   GDM::trust : updated trust radius is        0.330000000000000     
   GDM:         diagonal hessian shift is      0.000000000000000E+000
   GDM::PreWSS: input subspace size is                 13
   GDM::PreWSS: working subspace size set to           13
   GDM::PrEWSS: # of linearly dependent vectors =           11
   GDM::PrEWSS: Max dev from orthonormality =   2.590455627782262E-012
   GDM::BFGS:   lowest Hinv e-value    0.198338774155908     
   GDM::BFGS:   highest Hinv e-value    6.95508687109158     
   GDM::      : max scaling in EWCs is          2.65529429766255     
   GDM::      : max rotation in step is        1.909870438325735E-006
   GDM::        grad.step =  -2.411301432303349E-012
   ------- Leaving GDM -- hopefully with a step in the right direction! --------
 
   14    -595.2182027968      5.07E-07  Gap = 0.00 eV  Normal BFGS step
 
   ------------------- Entering Geometric Direct Minimization ------------------
   GDM::trust : actual energy change is       -1.136868377216160E-012
   GDM::trust : predicted energy change was   -3.616952148455023E-012
   GDM::trust : updated trust radius is        0.330000000000000     
   GDM:         diagonal hessian shift is      0.000000000000000E+000
   GDM::PreWSS: input subspace size is                 14
   GDM::PreWSS: working subspace size set to           14
   GDM::PrEWSS: # of linearly dependent vectors =           12
   GDM::PrEWSS: Max dev from orthonormality =   2.185730763049065E-012
   GDM::BFGS:   lowest Hinv e-value    0.198438861508335     
   GDM::BFGS:   highest Hinv e-value    6.88368760756736     
   GDM::      : max scaling in EWCs is          2.65529388196200     
   GDM::      : max rotation in step is        9.666219059193085E-007
   GDM::        grad.step =  -3.757866069879973E-013
   ------- Leaving GDM -- hopefully with a step in the right direction! --------
 
   15    -595.2182027968      2.63E-07  Gap = 0.00 eV  Normal BFGS step
 
   ------------------- Entering Geometric Direct Minimization ------------------
   GDM::trust : actual energy change is       -6.821210263296962E-013
   GDM::trust : predicted energy change was   -5.636799104819960E-013
   GDM::trust : updated trust radius is        0.330000000000000     
   GDM:         diagonal hessian shift is      0.000000000000000E+000
   GDM::PreWSS: input subspace size is                 15
   GDM::PreWSS: working subspace size set to           15
   GDM::PrEWSS: # of linearly dependent vectors =           13
   GDM::PrEWSS: Max dev from orthonormality =   6.258188411933929E-013
   GDM::BFGS:   lowest Hinv e-value    0.198359945941503     
   GDM::BFGS:   highest Hinv e-value    7.06128748954475     
   GDM::      : max scaling in EWCs is          2.65529345813502     
   GDM::      : max rotation in step is        6.527142522331968E-007
   GDM::        grad.step =  -1.175255868526538E-013
   ------- Leaving GDM -- hopefully with a step in the right direction! --------
 
   16    -595.2182027968      1.49E-07  Gap = 0.00 eV  Normal BFGS step
 
   ------------------- Entering Geometric Direct Minimization ------------------
   GDM::trust : actual energy change is        3.410605131648481E-013
   GDM::trust : predicted energy change was   -1.762883802789807E-013
   GDM::trust : updated trust radius is        0.108900000000000     
   GDM::WARNING energy changes are now smaller than effective accuracy.
   GDM::        calculation will continue, but THRESH should be increased
   GDM::        or SCF_CONVERGENCE decreased.
   GDM::        effective_thresh =   3.005303790548641E-009
   GDM:         diagonal hessian shift is      0.000000000000000E+000
   GDM::PreWSS: input subspace size is                 16
   GDM::PreWSS: working subspace size set to           16
   GDM::PrEWSS: # of linearly dependent vectors =           14
   GDM::PrEWSS: Max dev from orthonormality =   1.921081349554044E-012
   GDM::BFGS:   lowest Hinv e-value    0.198191562360947     
   GDM::BFGS:   highest Hinv e-value    6.88924725656255     
   GDM::      : max scaling in EWCs is          2.65529344231002     
   GDM::      : max rotation in step is        4.320543364132826E-007
   GDM::        grad.step =  -3.985073137652936E-014
   ------- Leaving GDM -- hopefully with a step in the right direction! --------
 
   17    -595.2182027968      7.17E-08  Gap = 0.00 eV  Normal BFGS step
 
   ------------------- Entering Geometric Direct Minimization ------------------
   GDM::trust : actual energy change is        2.273736754432321E-013
   GDM::trust : predicted energy change was   -5.977609706479406E-014
   GDM::trust : updated trust radius is        0.108900000000000     
   GDM::WARNING energy changes are now smaller than effective accuracy.
   GDM::        calculation will continue, but THRESH should be increased
   GDM::        or SCF_CONVERGENCE decreased.
   GDM::        effective_thresh =   3.005303790548641E-009
   GDM:         diagonal hessian shift is      0.000000000000000E+000
   GDM::PreWSS: input subspace size is                 17
   GDM::PreWSS: working subspace size set to           17
   GDM::PrEWSS: # of linearly dependent vectors =           15
   GDM::PrEWSS: Max dev from orthonormality =   4.414026436028173E-012
   GDM::BFGS:   lowest Hinv e-value    0.198362723079115     
   GDM::BFGS:   highest Hinv e-value    6.90696080036141     
   GDM::      : max scaling in EWCs is          2.65529354770984     
   GDM::      : max rotation in step is        1.121111734871803E-007
   GDM::        grad.step =  -4.770758628999146E-015
   ------- Leaving GDM -- hopefully with a step in the right direction! --------
 
   18    -595.2182027968      1.97E-08  Gap = 0.00 eV  Normal BFGS step
 
   ------------------- Entering Geometric Direct Minimization ------------------
   GDM::trust : actual energy change is       -3.410605131648481E-013
   GDM::trust : predicted energy change was   -7.156137943498719E-015
   GDM::trust : updated trust radius is        0.330000000000000     
   GDM:         diagonal hessian shift is      0.000000000000000E+000
   GDM::PreWSS: input subspace size is                 18
   GDM::PreWSS: working subspace size set to           16
   GDM::PrEWSS: # of linearly dependent vectors =           13
   GDM::PrEWSS: Max dev from orthonormality =   1.017415318660397E-013
   GDM::BFGS:   lowest Hinv e-value    0.291134820877200     
   GDM::BFGS:   highest Hinv e-value    7.05777008111802     
   GDM::      : max scaling in EWCs is          2.65529361662710     
   GDM::      : max rotation in step is        2.024101677692403E-008
   GDM::        grad.step =  -3.123652223978681E-016
   ------- Leaving GDM -- hopefully with a step in the right direction! --------
 
   19    -595.2182027968      6.03E-09 Convergence criterion met
 ---------------------------------------
 One-Electron    Energy = -1115.5359386442
 Total Coulomb   Energy =   428.1081711740
 Alpha Exchange  Energy =    -4.7938492095
 Beta  Exchange  Energy =    -4.5431208061
 DFT   Exchange  Energy =   -37.2554594825
 DFT Correlation Energy =    -2.0409715467
 Nuclear Repu.   Energy =   140.8429657182
 Nuclear Attr.   Energy = -1685.8883727779
 Kinetic         Energy =   570.3524341337
 <S^2> = 2.0170
 SCF time:  CPU 54.00 s  wall 5.09 s
 SCF   energy in the final basis set = -595.2182027968
 Total energy in the final basis set = -595.2182027968
 
 --------------------------------------------------------------
 
                    Orbital Energies (a.u.)
 --------------------------------------------------------------
 
 Alpha MOs
 -- Occupied --
-88.890 -19.226 -19.170  -7.965  -5.936  -5.921  -5.921  -2.090
 -1.314  -1.292  -1.291  -0.962  -0.890  -0.708  -0.437  -0.399
 -0.380  -0.365  -0.357  -0.353  -0.325  -0.312  -0.297
 -- Virtual --
 -0.140  -0.093  -0.062  -0.016  -0.008  -0.007   0.003   0.015
  0.026   0.073   0.073   0.076   0.091   0.107   0.137   0.164
  0.175   0.180   0.194   0.203   0.211   0.233   0.239   0.250
  0.254   0.274   0.293   0.353   0.500   0.510   0.516   0.597
  0.631   0.739   0.748   0.790   0.805   0.866   1.087   1.110
  1.158   1.165   1.195   1.217   1.576   1.662   1.726   1.727
  1.738   1.757   1.798   1.803   1.811   1.841   1.873   2.001
 12.202
 
 Beta MOs
 -- Occupied --
-88.884 -19.203 -19.165  -7.960  -5.919  -5.918  -5.917  -2.092
 -1.314  -1.295  -1.294  -0.896  -0.873  -0.663  -0.377  -0.361
 -0.351  -0.346  -0.345  -0.295  -0.283
 -- Virtual --
 -0.212  -0.196  -0.140  -0.093  -0.060  -0.007  -0.006   0.005
  0.015   0.017   0.027   0.074   0.075   0.083   0.091   0.111
  0.143   0.165   0.182   0.184   0.197   0.204   0.219   0.235
  0.240   0.251   0.256   0.282   0.298   0.356   0.517   0.524
  0.534   0.612   0.638   0.791   0.798   0.799   0.849   0.890
  1.124   1.145   1.164   1.187   1.211   1.233   1.595   1.683
  1.767   1.774   1.779   1.804   1.809   1.812   1.823   1.854
  1.900   2.011  12.202
 --------------------------------------------------------------
 
          Ground-State Mulliken Net Atomic Charges

     Atom                 Charge (a.u.)    Spin (a.u.)
  --------------------------------------------------------
      1 Zr                    1.206747      -0.166807
      2 O                    -0.548531       0.212954
      3 O                    -0.492186       0.938571
      4 S                    -0.166030       1.015282
  --------------------------------------------------------
  Sum of atomic charges =     0.000000
  Sum of spin   charges =     2.000000

 -----------------------------------------------------------------
                    Cartesian Multipole Moments
 -----------------------------------------------------------------
    Charge (ESU x 10^10)
                 0.0000
    Dipole Moment (Debye)
         X      -1.2201      Y       0.0000      Z      -0.6184
       Tot       1.3679
    Quadrupole Moments (Debye-Ang)
        XX     -54.0372     XY       0.0000     YY     -41.9555
        XZ       0.6100     YZ       0.0000     ZZ     -57.1987
    Octopole Moments (Debye-Ang^2)
       XXX      -3.5508    XXY       0.0000    XYY      -1.1502
       YYY       0.0000    XXZ      -8.9903    XYZ       0.0000
       YYZ      13.3578    XZZ      -0.1616    YZZ       0.0000
       ZZZ      38.1079
    Hexadecapole Moments (Debye-Ang^3)
      XXXX    -265.8840   XXXY       0.0000   XXYY     -50.0531
      XYYY       0.0000   YYYY     -52.8611   XXXZ      25.6973
      XXYZ       0.0000   XYYZ       7.4695   YYYZ       0.0000
      XXZZ    -154.1087   XYZZ       0.0000   YYZZ    -114.3928
      XZZZ      23.6331   YZZZ       0.0000   ZZZZ    -640.8308
 -----------------------------------------------------------------
 Calculating analytic gradient of the SCF energy
 Gradient of SCF Energy
            1           2           3           4
    1   0.0000109   0.0000083  -0.0000215   0.0000023
    2   0.0000000  -0.0000000   0.0000000  -0.0000000
    3  -0.0000038  -0.0000128   0.0000116   0.0000050
 Max gradient component =       2.149E-05
 RMS gradient           =       9.101E-06
 Gradient time:  CPU 9.64 s  wall 1.28 s
 Geometry Optimization Parameters
   NAtoms,    NIC,     NZ,  NCons,   NDum,   NFix, NCnnct, MaxDiis
        4      17       0       0       0       0       0       0

 Cartesian Hessian Update
 Hessian Updated using BFGS Update


** GEOMETRY OPTIMIZATION IN CARTESIAN COORDINATES **
   Searching for a Minimum

   Optimization Cycle:  22

                       Coordinates (Angstroms)
     ATOM                X               Y               Z
      1  Zr       -0.0120013787    0.0000000000    0.2873887045
      2  O         1.5211586901    0.0000000000    1.1862905820
      3  O        -1.6288139193    0.0000000000    1.4274672969
      4  S         0.1196566079    0.0000000000   -2.2093765834
   Point Group: c1    Number of degrees of freedom:     6


   Energy is   -595.218202797


 Translations and Rotations Projected Out of Hessian

  5 Hessian modes will be used to form the next step
  Hessian Eigenvalues:
     0.011069    0.022009    0.190099    0.372936    1.069590

 Minimum Search - Taking Simple RFO Step
 Searching for Lamda that Minimizes Along All modes
 Value Taken    Lamda =   0.00000000
 Step Taken.  Stepsize is  0.001045

                             Maximum     Tolerance    Cnvgd?
         Gradient           0.000021      0.000300     YES
         Displacement       0.000676      0.001200     YES
         Energy change     -0.000001      0.000001     YES


                       Distance Matrix (Angstroms)
             Zr(  1)   O (  2)   O (  3)
   O (  2)  1.777246
   O (  3)  1.978348  3.159192
   S (  4)  2.500234  3.673522  4.035317
 
 Final energy is   -595.218202796813     


 ******************************
 **  OPTIMIZATION CONVERGED  **
 ******************************

                       Coordinates (Angstroms)
     ATOM                X               Y               Z
      1  Zr       -0.0120013787    0.0000000000    0.2873887045
      2  O         1.5211586901    0.0000000000    1.1862905820
      3  O        -1.6288139193    0.0000000000    1.4274672969
      4  S         0.1196566079    0.0000000000   -2.2093765834

Z-matrix Print:
$molecule
0 3
Zr
O  1 1.777246
O  1 1.978348 2 114.427442
S  1 2.500234 2 117.364885 3 -180.000000 0
$end

 
 --------------------------------------------------------------
 
                    Orbital Energies (a.u.)
 --------------------------------------------------------------
 
 Alpha MOs
 -- Occupied --
-88.890 -19.226 -19.170  -7.965  -5.936  -5.921  -5.921  -2.090
 -1.314  -1.292  -1.291  -0.962  -0.890  -0.708  -0.437  -0.399
 -0.380  -0.365  -0.357  -0.353  -0.325  -0.312  -0.297
 -- Virtual --
 -0.140  -0.093  -0.062  -0.016  -0.008  -0.007   0.003   0.015
  0.026   0.073   0.073   0.076   0.091   0.107   0.137   0.164
  0.175   0.180   0.194   0.203   0.211   0.233   0.239   0.250
  0.254   0.274   0.293   0.353   0.500   0.510   0.516   0.597
  0.631   0.739   0.748   0.790   0.805   0.866   1.087   1.110
  1.158   1.165   1.195   1.217   1.576   1.662   1.726   1.727
  1.738   1.757   1.798   1.803   1.811   1.841   1.873   2.001
 12.202
 
 Beta MOs
 -- Occupied --
-88.884 -19.203 -19.165  -7.960  -5.919  -5.918  -5.917  -2.092
 -1.314  -1.295  -1.294  -0.896  -0.873  -0.663  -0.377  -0.361
 -0.351  -0.346  -0.345  -0.295  -0.283
 -- Virtual --
 -0.212  -0.196  -0.140  -0.093  -0.060  -0.007  -0.006   0.005
  0.015   0.017   0.027   0.074   0.075   0.083   0.091   0.111
  0.143   0.165   0.182   0.184   0.197   0.204   0.219   0.235
  0.240   0.251   0.256   0.282   0.298   0.356   0.517   0.524
  0.534   0.612   0.638   0.791   0.798   0.799   0.849   0.890
  1.124   1.145   1.164   1.187   1.211   1.233   1.595   1.683
  1.767   1.774   1.779   1.804   1.809   1.812   1.823   1.854
  1.900   2.011  12.202
 --------------------------------------------------------------
 
          Ground-State Mulliken Net Atomic Charges

     Atom                 Charge (a.u.)    Spin (a.u.)
  --------------------------------------------------------
      1 Zr                    1.206747      -0.166807
      2 O                    -0.548531       0.212954
      3 O                    -0.492186       0.938571
      4 S                    -0.166030       1.015282
  --------------------------------------------------------
  Sum of atomic charges =     0.000000
  Sum of spin   charges =     2.000000

 -----------------------------------------------------------------
                    Cartesian Multipole Moments
 -----------------------------------------------------------------
    Charge (ESU x 10^10)
                 0.0000
    Dipole Moment (Debye)
         X      -1.2201      Y       0.0000      Z      -0.6184
       Tot       1.3679
    Quadrupole Moments (Debye-Ang)
        XX     -54.0372     XY       0.0000     YY     -41.9555
        XZ       0.6100     YZ       0.0000     ZZ     -57.1987
    Octopole Moments (Debye-Ang^2)
       XXX      -3.5508    XXY       0.0000    XYY      -1.1502
       YYY       0.0000    XXZ      -8.9903    XYZ       0.0000
       YYZ      13.3578    XZZ      -0.1616    YZZ       0.0000
       ZZZ      38.1079
    Hexadecapole Moments (Debye-Ang^3)
      XXXX    -265.8840   XXXY       0.0000   XXYY     -50.0531
      XYYY       0.0000   YYYY     -52.8611   XXXZ      25.6973
      XXYZ       0.0000   XYYZ       7.4695   YYYZ       0.0000
      XXZZ    -154.1087   XYZZ       0.0000   YYZZ    -114.3928
      XZZZ      23.6331   YZZZ       0.0000   ZZZZ    -640.8308
 -----------------------------------------------------------------
Archival summary:
1\1\hpc3920\OPT\ProcedureUnspecified\BasisUnspecified\r112(\liqiuy\FriJan1720:08:052020FriJan1720:08:052020\0\\#,OPT,ProcedureUnspecified,BasisUnspecified,\\28,3\Zr\O,1,1.77725\O,1,1.97835,2,114.427\S,1,2.50023,2,117.365,3,-180,0\\\@

 Total job time:  183.26s(wall), 1683.60s(cpu) 
 Fri Jan 17 20:08:05 2020

        *************************************************************
        *                                                           *
        *  Thank you very much for using Q-Chem.  Have a nice day.  *
        *                                                           *
        *************************************************************


0 sent ACK to 0 
now end server 0 ... 
cleanup process ... done
