
Running Job 1 of 2 ZrOx.in
qchem ZrOx.in_42627.0 /tmp/5732881.priya/ZrOx.save/ 1
/usr/usc/qchem/4.4/bin/mpi/mpirun_qchem -machinefile /usr/usc/qchem/4.4/bin/mpi/machines -np 1 /usr/usc/qchem/4.4/exe/qcprog.exe ZrOx.in_42627.0 /tmp/5732881.priya/ZrOx.save/

Process 0 of 1 is on hpc3743.hpcc.usc.edu - thread support 0
initial socket setup ...start
initial socket setup ...done 
now start server 0 ... 
Check license passed

                  Welcome to Q-Chem
     A Quantum Leap Into The Future Of Chemistry


 Q-Chem 4.4, Q-Chem, Inc., Pleasanton, CA (2016)

 Y. Shao,  Z. Gan,  E. Epifanovsky,  A. T. B. Gilbert,  M. Wormit,  
 J. Kussmann,  A. W. Lange,  A. Behn,  J. Deng,  X. Feng,  D. Ghosh,  
 M. Goldey,  P. R. Horn,  L. D. Jacobson,  I. Kaliman,  F.Rob,  
 R. Z. Khaliullin,  T. Kus,  A. Landau,  J. Liu,  E. I. Proynov,  Y. M. Rhee,  
 R. M. Richard,  M. A. Rohrdanz,  R. P. Steele,  E. J. Sundstrom,  
 H. L. Woodcock III,  P. M. Zimmerman,  D. Zuev,  B. Albrecht,  E. Alguire,  
 B. Austin,  S. A. Baeppler,  G. J. O. Beran,  Y. A. Bernard,  E. Berquist,  
 K. Brandhorst,  K. B. Bravaya,  S. T. Brown,  D. Casanova,  C.-M. Chang,  
 Y. Chen,  S. H. Chien,  K. D. Closser,  M. P. Coons,  D. L. Crittenden,  
 S. Dasgupta,  M. Diedenhofen,  R. A. DiStasio Jr.,  H. Do,  A. D. Dutoi,  
 R. G. Edgar,  P.-T. Fang,  S. Fatehi,  Q. Feng,  L. Fusti-Molnar,  
 A. Ghysels,  A. Golubeva-Zadorozhnaya,  J. Gomes,  A. Gunina,  
 M. W. D. Hanson-Heine,  P. H. P. Harbach,  A. W. Hauser,  E. G. Hohenstein,  
 Z. C. Holden,  K. Hui,  T.-C. Jagau,  H. Ji,  B. Kaduk,  K. Khistyaev,  
 Jaehoon Kim,  Jihan Kim,  R. A. King,  P. Klunzinger,  D. Kosenkov,  
 T. Kowalczyk,  C. M. Krauter,  A. Kunitsa,  K. U. Lao,  A. Laurent,  
 K. V. Lawler,  D. Lefrancois,  S. Lehtola,  S. V. Levchenko,  C. Y. Lin,  
 Y.-S. Lin,  F. Liu,  E. Livshits,  R. C. Lochan,  A. Luenser,  P. Manohar,  
 S. F. Manzer,  S.-P. Mao,  Y. Mao,  N. Mardirossian,  A. V. Marenich,  
 L. A. Martinez-Martinez,  S. A. Maurer,  N. J. Mayhall,  J.-M. Mewes,  
 A. F. Morrison,  K. Nanda,  C. M. Oana,  R. Olivares-Amaya,  D. P. O'Neill,  
 J. A. Parkhill,  T. M. Perrine,  R. Peverati,  P. A. Pieniazek,  F. Plasser,  
 A. Prociuk,  D. R. Rehn,  E. Rosta,  N. J. Russ,  N. Sergueev,  
 S. M. Sharada,  S. Sharma,  D. W. Small,  A. Sodt,  T. Stauch,  T. Stein,  
 D. Stuck,  Y.-C. Su,  A. J. W. Thom,  T. Tsuchimochi,  L. Vogt,  O. Vydrov,  
 T. Wang,  M. A. Watson,  J. Wenzel,  A. White,  C. F. Williams,  
 V. Vanovschi,  S. Yeganeh,  S. R. Yost,  Z.-Q. You,  I. Y. Zhang,  X. Zhang,  
 Y. Zhao,  B. R. Brooks,  G. K. L. Chan,  D. M. Chipman,  C. J. Cramer,  
 W. A. Goddard III,  M. S. Gordon,  W. J. Hehre,  A. Klamt,  
 H. F. Schaefer III,  M. W. Schmidt,  C. D. Sherrill,  D. G. Truhlar,  
 A. Warshel,  X. Xu,  A. Aspuru-Guzik,  R. Baer,  A. T. Bell,  N. A. Besley,  
 J.-D. Chai,  A. Dreuw,  B. D. Dunietz,  T. R. Furlani,  S. R. Gwaltney,  
 C.-P. Hsu,  Y. Jung,  J. Kong,  D. S. Lambrecht,  W. Liang,  C. Ochsenfeld,  
 V. A. Rassolov,  L. V. Slipchenko,  J. E. Subotnik,  T. Van Voorhis,  
 J. M. Herbert,  A. I. Krylov,  P. M. W. Gill,  M. Head-Gordon

 Contributors to earlier versions of Q-Chem not listed above: 
 R. D. Adamson,  J. Baker,  E. F. C. Byrd,  A. K. Chakraborty,  C.-L. Cheng,  
 H. Dachsel,  R. J. Doerksen,  G. Hawkins,  A. Heyden,  S. Hirata,  
 G. Kedziora,  F. J. Keil,  C. Kelley,  P. P. Korambath,  W. Kurlancheek,  
 A. M. Lee,  M. S. Lee,  D. Liotard,  I. Lotan,  P. E. Maslen,  N. Nair,  
 D. Neuhauser,  R. Olson,  B. Peters,  J. Ritchie,  N. E. Schultz,  
 N. Shenvi,  A. C. Simmonett,  K. S. Thanthiriwatte,  Q. Wu,  W. Zhang

 Please cite Q-Chem as follows:
 Y. Shao et al., Mol. Phys. 113, 184-215 (2015)
 DOI: 10.1080/00268976.2014.952696

 Q-Chem 4.4.1 for Intel X86 Linux

 Parts of Q-Chem use Armadillo 5.200.1 (Boston Tea Smuggler).
 http://arma.sourceforge.net/

 Q-Chem begins on Fri Jan 17 20:06:14 2020  

Host: 
0

     Scratch files written to /tmp/5732881.priya/ZrOx.save//
 Jul2716 11668_ 21447  21445 5558   
 Parallel job on  1  processors
Processing $rem in /usr/usc/qchem/4.4/config/preferences.
 MEM_TOTAL  2000 

Checking the input file for inconsistencies... 	...done.

--------------------------------------------------------------
User input:
--------------------------------------------------------------
$comment
--------------------------------------------------------
A SINGLE POINT DFT CALCULATION WITH BASIS SET PROJECTION
--------------------------------------------------------
$end

$molecule
0 3
Zr 0.00000 0.00000 0.00014
O 0.00000 0.00000 1.72830
O -1.49755 0.00000 -0.86464
O 1.49755 0.00000 -0.86464
$end

$rem
JOBTYPE   SP
METHOD   B3LYP
BASIS   GEN
ECP   GEN
MAX_SCF_CYCLES   200
SCF_CONVERGENCE 8
SCF_PRINT 1
PDB_PRINT 2
THRESH 14
VARTHRESH 14
INCDFT FALSE
SYMMETRY False
Sym_ignore True
SCF_ALGORITHM GDM
XC_GRID 000128000302
DFT_D           EMPIRICAL_GRIMME3
DFT_D3_S6       1000
DFT_D3_RS6     1261
DFT_D3_S8      1703
DFT_D3_3BODY    FALSE
$end

$basis
O
6-31+G**
****
S
6-31+G**
****
Zr
LanL2DZ
****
$end

$ecp
Zr
LanL2DZ
****
$end

--------------------------------------------------------------
 ----------------------------------------------------------------
             Standard Nuclear Orientation (Angstroms)
    I     Atom           X                Y                Z
 ----------------------------------------------------------------
    1      Zr      0.0000000000     0.0000000000     0.0001400000
    2      O       0.0000000000     0.0000000000     1.7283000000
    3      O      -1.4975500000     0.0000000000    -0.8646400000
    4      O       1.4975500000     0.0000000000    -0.8646400000
 ----------------------------------------------------------------
 Nuclear Repulsion Energy =   122.0765782812 hartrees
 There are       19 alpha and       17 beta electrons

 Q-Chem warning in module /home/scratch/svnadmin/11668_zgan/qchem/forms1/BasisType.C, line 1419:

 Setting pure/cartesian flag to 2111 for general basis


 Requested basis set is non-standard
 There are 23 shells and 76 basis functions

 Total QAlloc Memory Limit   2000 MB
 Mega-Array Size        61 MB
 MEM_STATIC part        62 MB

                       Distance Matrix (Angstroms)
             Zr(  1)   O (  2)   O (  3)
   O (  2)  1.728160
   O (  3)  1.729306  2.994327
   O (  4)  1.729306  2.994327  2.995100
 
 A cutoff of  1.0D-14 yielded    273 shell pairs
 There are      3036 function pairs (      3456 Cartesian)
 
 -------------------------------------------------------
 OpenMP Integral Computing Module                       
 Release: version 1.0, May 2013, Q-Chem Inc. Pittsburgh 
 -------------------------------------------------------
 Integral Job Info:
 Integral job number is                      11
 Integral operator is                         1
 short-range coefficients                     0
 long-range coefficients              100000000
 Omega coefficients                           0
 if combine SR and LR in K                    0
 Integral screening is                        0
 Integral computing path is                   2
 max size of driver memory is            800000
 size of driver memory is                593474
 size of scratch memory is             11771240
 max col of scratch BK array               1296
 max len of scratch array in speh3          155
 max len of scratch index in speh4           18
 max int batch size is                      520
 min int batch size is                       52
 fixed nKL is                                52
 max L of basis functions is                  2
 order of int derivative is                   0
 number of shells is                         23
 number of basis is                          81
 number of cartesian basis is                81
 number of contracted shell pairs           273
 number of primitive shell pairs           1339
 maxK2 (contraction) of shell pair           36
 max number of K2 of shell pair               1
 max number of CS2 of shell pair             24
 max number of PS2 of shell pair            108
 mem total for path MDJ                   17464
 -------------------------------------------------------
 Requested basis set is non-standard
 Compound shells will be simplified
 There are 32 shells and 76 basis functions
 A cutoff of  1.0D-14 yielded    525 shell pairs
 There are      3009 function pairs (      3429 Cartesian)
 Smallest overlap matrix eigenvalue = 7.66E-04

 Scale SEOQF with 1.000000e-01/1.000000e-01/1.000000e-01

 Standard Electronic Orientation quadrupole field applied
 Nucleus-field energy     =    -0.0000000026 hartrees
 Guess MOs from core Hamiltonian diagonalization
 An unrestricted hybrid HF-DFT SCF calculation will be
 performed using Geometric Direct Minimization
 Exchange:     0.2000 Hartree-Fock + 0.0800 Slater + 0.7200 B88
 Correlation:  0.1900 VWN1RPA + 0.8100 LYP
 Using Euler-Maclaurin-Lebedev (128,302) quadrature formula
 Dispersion:   Grimme D3
 SCF converges when RMS gradient is below 1.0E-08
 Maximum number of minimization steps = 200
 using 12 threads for integral computing 
 -------------------------------------------------------
 OpenMP BLAS3 based DFT computing Module                
 Release: version 1.0, May 2013, Q-Chem Inc. Pittsburgh 
 -------------------------------------------------------
 
   ------------------- Entering Geometric Direct Minimization ------------------
   GDM:         diagonal hessian shift is      0.000000000000000E+000
   GDM::PreWSS: input subspace size is                  1
   GDM::PreWSS: working subspace size set to            1
   GDM::PrEWSS: # of linearly dependent vectors =            0
   GDM::PrEWSS: Max dev from orthonormality =   0.000000000000000E+000
   GDM::BFGS:   lowest Hinv e-value     1.00000000000000     
   GDM::BFGS:   highest Hinv e-value    1.00000000000000     
   GDM::      : max scaling in EWCs is          1.41421356237309     
   GDM::      : max rotation in step is        0.111606973095436     
   GDM::        grad.step =   -2.79539467924467     
   ------- Leaving GDM -- hopefully with a step in the right direction! --------
 
 ---------------------------------------
  Cycle       Energy        RMS Gradient
 ---------------------------------------
    1    -256.5570526054      2.03E+00  Gap = 0.00 eV  Descent step
 
   ------------------- Entering Geometric Direct Minimization ------------------
   GDM::trust : actual energy change is        -2.77021560121165     
   GDM::trust : predicted energy change was   -0.163350000000000     
   GDM::trust : updated trust radius is        0.330000000000000     
   GDM:         diagonal hessian shift is      0.000000000000000E+000
   GDM::PreWSS: input subspace size is                  2
   GDM::PreWSS: working subspace size set to            2
   GDM::PrEWSS: # of linearly dependent vectors =            0
   GDM::PrEWSS: Max dev from orthonormality =   5.184741524999481E-014
   GDM::BFGS:   lowest Hinv e-value    0.555600584101827     
   GDM::BFGS:   highest Hinv e-value    2.77181701097875     
   GDM::      : max scaling in EWCs is          1.41421356237309     
   GDM::      : max rotation in step is        0.111117059558371     
   GDM::        grad.step =   -2.97531578917317     
   ------- Leaving GDM -- hopefully with a step in the right direction! --------
 
    2    -259.3272682066      2.15E+00  Gap = 0.00 eV  Descent step
 
   ------------------- Entering Geometric Direct Minimization ------------------
   GDM::trust : actual energy change is        -2.89169297921183     
   GDM::trust : predicted energy change was   -0.131755228436063     
   GDM::trust : updated trust radius is        0.330000000000000     
   GDM:         diagonal hessian shift is      0.000000000000000E+000
   GDM::PreWSS: input subspace size is                  3
   GDM::PreWSS: working subspace size set to            3
   GDM::PrEWSS: # of linearly dependent vectors =            0
   GDM::PrEWSS: Max dev from orthonormality =   9.315465065995454E-013
   GDM::BFGS:   lowest Hinv e-value    0.505746238553395     
   GDM::BFGS:   highest Hinv e-value    1.29646803688259     
   GDM::      : max scaling in EWCs is          1.41421356237309     
   GDM::      : max rotation in step is       -0.133068806991974     
   GDM::        grad.step =   -2.69142176683949     
   ------- Leaving GDM -- hopefully with a step in the right direction! --------
 
    3    -262.2189611859      2.33E+00  Gap = 0.00 eV  Descent step
 
   ------------------- Entering Geometric Direct Minimization ------------------
   GDM::trust : actual energy change is        -2.56868558019846     
   GDM::trust : predicted energy change was   -0.164377063524182     
   GDM::trust : updated trust radius is        0.330000000000000     
   GDM:         diagonal hessian shift is      0.000000000000000E+000
   GDM::PreWSS: input subspace size is                  4
   GDM::PreWSS: working subspace size set to            4
   GDM::PrEWSS: # of linearly dependent vectors =            0
   GDM::PrEWSS: Max dev from orthonormality =   3.536164416839682E-013
   GDM::BFGS:   lowest Hinv e-value    0.492902732909852     
   GDM::BFGS:   highest Hinv e-value    1.35564402918574     
   GDM::      : max scaling in EWCs is          1.41421356237309     
   GDM::      : max rotation in step is       -9.859137491930431E-002
   GDM::        grad.step =   -1.99193845866782     
   ------- Leaving GDM -- hopefully with a step in the right direction! --------
 
    4    -264.7876467661      1.64E+00  Gap = 0.00 eV  Descent step
 
   ------------------- Entering Geometric Direct Minimization ------------------
   GDM::trust : actual energy change is        -1.87033607272184     
   GDM::trust : predicted energy change was   -0.188854388945995     
   GDM::trust : updated trust radius is        0.330000000000000     
   GDM:         diagonal hessian shift is      0.000000000000000E+000
   GDM::PreWSS: input subspace size is                  5
   GDM::PreWSS: working subspace size set to            5
   GDM::PrEWSS: # of linearly dependent vectors =            0
   GDM::PrEWSS: Max dev from orthonormality =   3.494246558766179E-012
   GDM::BFGS:   lowest Hinv e-value    0.464763381795597     
   GDM::BFGS:   highest Hinv e-value    1.45293782646595     
   GDM::      : max scaling in EWCs is          1.41421356237309     
   GDM::      : max rotation in step is       -6.132442168372897E-002
   GDM::        grad.step =   -1.55181447706164     
   ------- Leaving GDM -- hopefully with a step in the right direction! --------
 
    5    -266.6579828388      9.61E-01  Gap = 0.00 eV  Descent step
 
   ------------------- Entering Geometric Direct Minimization ------------------
   GDM::trust : actual energy change is        -1.45403937669857     
   GDM::trust : predicted energy change was   -0.184578295466439     
   GDM::trust : updated trust radius is        0.330000000000000     
   GDM:         diagonal hessian shift is      0.000000000000000E+000
   GDM::PreWSS: input subspace size is                  6
   GDM::PreWSS: working subspace size set to            6
   GDM::PrEWSS: # of linearly dependent vectors =            0
   GDM::PrEWSS: Max dev from orthonormality =   4.422753829835813E-012
   GDM::BFGS:   lowest Hinv e-value    0.418235102927969     
   GDM::BFGS:   highest Hinv e-value    1.57881410114537     
   GDM::      : max scaling in EWCs is          2.82842712474619     
   GDM::      : max rotation in step is        0.127562867181613     
   GDM::        grad.step =   -1.39335175162495     
   ------- Leaving GDM -- hopefully with a step in the right direction! --------
 
    6    -268.1120222155      7.03E-01  Gap = 0.00 eV  Descent step
 
   ------------------- Entering Geometric Direct Minimization ------------------
   GDM::trust : actual energy change is        -1.28310645579393     
   GDM::trust : predicted energy change was   -0.178602929863807     
   GDM::trust : updated trust radius is        0.330000000000000     
   GDM:         diagonal hessian shift is      0.000000000000000E+000
   GDM::PreWSS: input subspace size is                  7
   GDM::PreWSS: working subspace size set to            7
   GDM::PrEWSS: # of linearly dependent vectors =            0
   GDM::PrEWSS: Max dev from orthonormality =   1.648985115121349E-011
   GDM::BFGS:   lowest Hinv e-value    0.347935188540750     
   GDM::BFGS:   highest Hinv e-value    1.67981329157685     
   GDM::      : max scaling in EWCs is          2.82842712474619     
   GDM::      : max rotation in step is        0.208183574918324     
   GDM::        grad.step =   -1.31196663355588     
   ------- Leaving GDM -- hopefully with a step in the right direction! --------
 
    7    -269.3951286713      8.87E-01  Gap = 0.00 eV  Descent step
 
   ------------------- Entering Geometric Direct Minimization ------------------
   GDM::trust : actual energy change is        -1.16340205827225     
   GDM::trust : predicted energy change was   -0.179502822803921     
   GDM::trust : updated trust radius is        0.330000000000000     
   GDM:         diagonal hessian shift is      0.000000000000000E+000
   GDM::PreWSS: input subspace size is                  8
   GDM::PreWSS: working subspace size set to            8
   GDM::PrEWSS: # of linearly dependent vectors =            0
   GDM::PrEWSS: Max dev from orthonormality =   1.370365626529590E-011
   GDM::BFGS:   lowest Hinv e-value    0.275571376486587     
   GDM::BFGS:   highest Hinv e-value    1.70756010303678     
   GDM::      : max scaling in EWCs is          2.82842712474619     
   GDM::      : max rotation in step is       -0.216772498763540     
   GDM::        grad.step =  -0.905220919910736     
   ------- Leaving GDM -- hopefully with a step in the right direction! --------
 
    8    -270.5585307295      6.37E-01  Gap = 0.00 eV  Descent step
 
   ------------------- Entering Geometric Direct Minimization ------------------
   GDM::trust : actual energy change is       -0.751930334690428     
   GDM::trust : predicted energy change was   -0.191644217082598     
   GDM::trust : updated trust radius is        0.330000000000000     
   GDM:         diagonal hessian shift is      0.000000000000000E+000
   GDM::PreWSS: input subspace size is                  9
   GDM::PreWSS: working subspace size set to            9
   GDM::PrEWSS: # of linearly dependent vectors =            0
   GDM::PrEWSS: Max dev from orthonormality =   1.769358964898160E-011
   GDM::BFGS:   lowest Hinv e-value    0.258116261641106     
   GDM::BFGS:   highest Hinv e-value    2.03381463567346     
   GDM::      : max scaling in EWCs is          2.82842712474619     
   GDM::      : max rotation in step is       -0.190197276216658     
   GDM::        grad.step =  -0.509299503778894     
   ------- Leaving GDM -- hopefully with a step in the right direction! --------
 
    9    -271.3104610642      3.53E-01  Gap = 0.00 eV  Descent step
 
   ------------------- Entering Geometric Direct Minimization ------------------
   GDM::trust : actual energy change is       -0.414517117909668     
   GDM::trust : predicted energy change was   -0.196939783017330     
   GDM::trust : updated trust radius is        0.330000000000000     
   GDM:         diagonal hessian shift is      0.000000000000000E+000
   GDM::PreWSS: input subspace size is                 10
   GDM::PreWSS: working subspace size set to           10
   GDM::PrEWSS: # of linearly dependent vectors =            0
   GDM::PrEWSS: Max dev from orthonormality =   1.279752692706637E-011
   GDM::BFGS:   lowest Hinv e-value    0.324967097813569     
   GDM::BFGS:   highest Hinv e-value    2.32818659025197     
   GDM::      : max scaling in EWCs is          2.82842712474619     
   GDM::      : max rotation in step is       -0.102653459106415     
   GDM::        grad.step =  -0.307423230852057     
   ------- Leaving GDM -- hopefully with a step in the right direction! --------
 
   10    -271.7249781821      2.42E-01  Gap = 0.00 eV  Descent step
 
   ------------------- Entering Geometric Direct Minimization ------------------
   GDM::trust : actual energy change is       -0.236218071867540     
   GDM::trust : predicted energy change was   -0.173418476930925     
   GDM::trust : updated trust radius is        0.330000000000000     
   GDM:         diagonal hessian shift is      0.000000000000000E+000
   GDM::PreWSS: input subspace size is                 11
   GDM::PreWSS: working subspace size set to           11
   GDM::PrEWSS: # of linearly dependent vectors =            0
   GDM::PrEWSS: Max dev from orthonormality =   3.050291963457852E-011
   GDM::BFGS:   lowest Hinv e-value    0.328115099156144     
   GDM::BFGS:   highest Hinv e-value    2.48590851297889     
   GDM::      : max scaling in EWCs is          2.82842712474619     
   GDM::      : max rotation in step is       -9.469649418192795E-002
   GDM::        grad.step =  -0.169389915575520     
   ------- Leaving GDM -- hopefully with a step in the right direction! --------
 
   11    -271.9611962540      1.31E-01  Gap = 0.00 eV  Descent step
 
   ------------------- Entering Geometric Direct Minimization ------------------
   GDM::trust : actual energy change is       -0.113123543020208     
   GDM::trust : predicted energy change was   -0.163957257494647     
   GDM::trust : updated trust radius is        0.330000000000000     
   GDM:         diagonal hessian shift is      0.000000000000000E+000
   GDM::PreWSS: input subspace size is                 12
   GDM::PreWSS: working subspace size set to           12
   GDM::PrEWSS: # of linearly dependent vectors =            0
   GDM::PrEWSS: Max dev from orthonormality =   1.995190471171249E-011
   GDM::BFGS:   lowest Hinv e-value    0.320946981262020     
   GDM::BFGS:   highest Hinv e-value    2.53353800748211     
   GDM::      : max scaling in EWCs is          2.82842712474619     
   GDM::      : max rotation in step is        0.221258392029303     
   GDM::        grad.step =  -5.337049839404795E-002
   ------- Leaving GDM -- hopefully with a step in the right direction! --------
 
   12    -272.0743197970      5.93E-02  Gap = 0.00 eV  Normal BFGS step
 
   ------------------- Entering Geometric Direct Minimization ------------------
   GDM::trust : actual energy change is       -2.336286913413232E-002
   GDM::trust : predicted energy change was   -8.005574759107191E-002
   GDM::trust : updated trust radius is        0.330000000000000     
   GDM:         diagonal hessian shift is      0.000000000000000E+000
   GDM::PreWSS: input subspace size is                 13
   GDM::PreWSS: working subspace size set to           13
   GDM::PrEWSS: # of linearly dependent vectors =            0
   GDM::PrEWSS: Max dev from orthonormality =   2.447739927413650E-011
   GDM::BFGS:   lowest Hinv e-value    0.285241542231828     
   GDM::BFGS:   highest Hinv e-value    2.56161214297921     
   GDM::      : max scaling in EWCs is          2.82842712474619     
   GDM::      : max rotation in step is        0.340379273796318     
   GDM::        grad.step =  -2.686897626680464E-002
   ------- Leaving GDM -- hopefully with a step in the right direction! --------
 
   13    -272.0976826662      1.32E-01  Gap = 0.00 eV  Normal BFGS step
 
   ------------------- Entering Geometric Direct Minimization ------------------
   GDM::trust : actual energy change is       -1.887937117481897E-002
   GDM::trust : predicted energy change was   -4.030346440020695E-002
   GDM::trust : updated trust radius is        0.330000000000000     
   GDM:         diagonal hessian shift is      0.000000000000000E+000
   GDM::PreWSS: input subspace size is                 14
   GDM::PreWSS: working subspace size set to           14
   GDM::PrEWSS: # of linearly dependent vectors =            0
   GDM::PrEWSS: Max dev from orthonormality =   2.095362078291529E-011
   GDM::BFGS:   lowest Hinv e-value    0.259134445668413     
   GDM::BFGS:   highest Hinv e-value    5.43797910658844     
   GDM::trust : dogleg step length is          0.330000000000000     
   GDM::      : max scaling in EWCs is          2.76995655386160     
   GDM::      : max rotation in step is        0.826129207761661     
   GDM::        grad.step =  -5.165234163339251E-002
   ------- Leaving GDM -- hopefully with a step in the right direction! --------
 
   14    -272.1165620373      1.44E-01  Gap = 0.00 eV  Dog-leg BFGS step
 
   ------------------- Entering Geometric Direct Minimization ------------------
   GDM::trust : actual energy change is        4.492861993469432E-002
   GDM::trust : predicted energy change was   -7.812690759253195E-002
   GDM::trust : updated trust radius is        0.108900000000000     
   GDM::search:  On step            1 .  The current bracket is:
       left   : x =  0.0000E+00, e =      -272.1165620373, g = -0.6018E-01
       current: x =  0.8583E+00, e =      -272.0716334174, g =  0.2235E+00
       right  : x =  0.1000E+04, e =      1000.0000000000, g =  0.1000E+04
       next   : x =  0.2295E+00
   GDM::      : max rotation in step is        0.220910557214462     
   ------- Leaving GDM -- hopefully with a step in the right direction! --------
 
   15    -272.0716334174      1.04E-01  Gap = 0.00 eV  Line search: overstep
 
   ------------------- Entering Geometric Direct Minimization ------------------
   GDM::trust : actual energy change is       -1.113221868951086E-002
   GDM::trust : predicted energy change was   -7.812690759253195E-002
   GDM::trust : updated trust radius is        0.108900000000000     
   GDM:         diagonal hessian shift is      0.000000000000000E+000
   GDM::PreWSS: input subspace size is                 15
   GDM::PreWSS: working subspace size set to           15
   GDM::PrEWSS: # of linearly dependent vectors =            0
   GDM::PrEWSS: Max dev from orthonormality =   2.156545081399841E-011
   GDM::BFGS:   lowest Hinv e-value    0.274679502411779     
   GDM::BFGS:   highest Hinv e-value    5.96850759591783     
   GDM::      : max scaling in EWCs is          2.43552878746646     
   GDM::      : max rotation in step is        8.006550812804827E-002
   GDM::        grad.step =  -2.050537666959928E-002
   ------- Leaving GDM -- hopefully with a step in the right direction! --------
 
   16    -272.1276942560      6.58E-02  Gap = 0.00 eV  Descent step
 
   ------------------- Entering Geometric Direct Minimization ------------------
   GDM::trust : actual energy change is       -8.124082331107729E-003
   GDM::trust : predicted energy change was   -1.963390503055979E-002
   GDM::trust : updated trust radius is        0.330000000000000     
   GDM:         diagonal hessian shift is      0.000000000000000E+000
   GDM::PreWSS: input subspace size is                 16
   GDM::PreWSS: working subspace size set to           16
   GDM::PrEWSS: # of linearly dependent vectors =            0
   GDM::PrEWSS: Max dev from orthonormality =   9.346828866441115E-012
   GDM::BFGS:   lowest Hinv e-value    0.180042196229325     
   GDM::BFGS:   highest Hinv e-value    4.23334995513095     
   GDM::trust : dogleg step length is          0.330000000000000     
   GDM::      : max scaling in EWCs is          2.79182189984269     
   GDM::      : max rotation in step is        0.708211093296509     
   GDM::        grad.step =  -5.696630495625724E-002
   ------- Leaving GDM -- hopefully with a step in the right direction! --------
 
   17    -272.1358183384      1.58E-01  Gap = 0.00 eV  Dog-leg BFGS step
 
   ------------------- Entering Geometric Direct Minimization ------------------
   GDM::trust : actual energy change is        4.409910345327717E-002
   GDM::trust : predicted energy change was   -9.873987520235111E-002
   GDM::trust : updated trust radius is        0.108900000000000     
   GDM::search:  On step            1 .  The current bracket is:
       left   : x =  0.0000E+00, e =      -272.1358183384, g = -0.7210E-01
       current: x =  0.7901E+00, e =      -272.0917192349, g =  0.1837E+00
       right  : x =  0.1000E+04, e =      1000.0000000000, g =  0.1000E+04
       next   : x =  0.2227E+00
   GDM::      : max rotation in step is        0.199594350574688     
   ------- Leaving GDM -- hopefully with a step in the right direction! --------
 
   18    -272.0917192349      1.73E-01  Gap = 0.00 eV  Line search: overstep
 
   ------------------- Entering Geometric Direct Minimization ------------------
   GDM::trust : actual energy change is       -1.005427002610304E-002
   GDM::trust : predicted energy change was   -9.873987520235111E-002
   GDM::trust : updated trust radius is        0.108900000000000     
   GDM:         diagonal hessian shift is      0.000000000000000E+000
   GDM::PreWSS: input subspace size is                 17
   GDM::PreWSS: working subspace size set to           17
   GDM::PrEWSS: # of linearly dependent vectors =            0
   GDM::PrEWSS: Max dev from orthonormality =   3.071980170243904E-011
   GDM::BFGS:   lowest Hinv e-value    0.186182723988751     
   GDM::BFGS:   highest Hinv e-value    3.15923449232935     
   GDM::      : max scaling in EWCs is          2.36737830227749     
   GDM::      : max rotation in step is        0.113806349758715     
   GDM::        grad.step =  -5.070100871342373E-003
   ------- Leaving GDM -- hopefully with a step in the right direction! --------
 
   19    -272.1458726084      2.45E-02  Gap = 0.00 eV  Normal BFGS step
 
   ------------------- Entering Geometric Direct Minimization ------------------
   GDM::trust : actual energy change is       -2.484691049971843E-003
   GDM::trust : predicted energy change was   -7.605151307013558E-003
   GDM::trust : updated trust radius is        0.330000000000000     
   GDM:         diagonal hessian shift is      0.000000000000000E+000
   GDM::PreWSS: input subspace size is                 18
   GDM::PreWSS: working subspace size set to           18
   GDM::PrEWSS: # of linearly dependent vectors =            0
   GDM::PrEWSS: Max dev from orthonormality =   4.611701298617987E-011
   GDM::BFGS:   lowest Hinv e-value    0.187413722773071     
   GDM::BFGS:   highest Hinv e-value    3.07899189646309     
   GDM::      : max scaling in EWCs is          2.39400016869723     
   GDM::      : max rotation in step is       -3.179470949449915E-002
   GDM::        grad.step =  -7.313206509545409E-004
   ------- Leaving GDM -- hopefully with a step in the right direction! --------
 
   20    -272.1483572994      1.38E-02  Gap = 0.00 eV  Normal BFGS step
 
   ------------------- Entering Geometric Direct Minimization ------------------
   GDM::trust : actual energy change is       -4.307805072016890E-004
   GDM::trust : predicted energy change was   -1.096980976431811E-003
   GDM::trust : updated trust radius is        0.330000000000000     
   GDM:         diagonal hessian shift is      0.000000000000000E+000
   GDM::PreWSS: input subspace size is                 19
   GDM::PreWSS: working subspace size set to           18
   GDM::PrEWSS: # of linearly dependent vectors =            0
   GDM::PrEWSS: Max dev from orthonormality =   5.315161331898022E-011
   GDM::BFGS:   lowest Hinv e-value    0.161104824294719     
   GDM::BFGS:   highest Hinv e-value    3.10603586114009     
   GDM::      : max scaling in EWCs is          2.34916667191459     
   GDM::      : max rotation in step is       -3.709622104199377E-002
   GDM::        grad.step =  -3.253869456099582E-004
   ------- Leaving GDM -- hopefully with a step in the right direction! --------
 
   21    -272.1487880799      1.21E-02  Gap = 0.00 eV  Normal BFGS step
 
   ------------------- Entering Geometric Direct Minimization ------------------
   GDM::trust : actual energy change is       -1.920784712297063E-004
   GDM::trust : predicted energy change was   -4.880804184149372E-004
   GDM::trust : updated trust radius is        0.330000000000000     
   GDM:         diagonal hessian shift is      0.000000000000000E+000
   GDM::PreWSS: input subspace size is                 19
   GDM::PreWSS: working subspace size set to           18
   GDM::PrEWSS: # of linearly dependent vectors =            0
   GDM::PrEWSS: Max dev from orthonormality =   1.511941058462973E-010
   GDM::BFGS:   lowest Hinv e-value    0.174742128224404     
   GDM::BFGS:   highest Hinv e-value    4.03141798481381     
   GDM::      : max scaling in EWCs is          2.33317482855104     
   GDM::      : max rotation in step is       -4.127191129423635E-002
   GDM::        grad.step =  -2.065546541415995E-004
   ------- Leaving GDM -- hopefully with a step in the right direction! --------
 
   22    -272.1489801584      9.52E-03  Gap = 0.00 eV  Normal BFGS step
 
   ------------------- Entering Geometric Direct Minimization ------------------
   GDM::trust : actual energy change is       -1.216007002540209E-004
   GDM::trust : predicted energy change was   -3.098319812123992E-004
   GDM::trust : updated trust radius is        0.330000000000000     
   GDM:         diagonal hessian shift is      0.000000000000000E+000
   GDM::PreWSS: input subspace size is                 19
   GDM::PreWSS: working subspace size set to           18
   GDM::PrEWSS: # of linearly dependent vectors =            0
   GDM::PrEWSS: Max dev from orthonormality =   2.044488883745643E-010
   GDM::BFGS:   lowest Hinv e-value    0.195267860648708     
   GDM::BFGS:   highest Hinv e-value    5.44845804290103     
   GDM::      : max scaling in EWCs is          2.32917847067278     
   GDM::      : max rotation in step is       -2.994980369985608E-002
   GDM::        grad.step =  -1.278916271067136E-004
   ------- Leaving GDM -- hopefully with a step in the right direction! --------
 
   23    -272.1491017591      5.07E-03  Gap = 0.00 eV  Normal BFGS step
 
   ------------------- Entering Geometric Direct Minimization ------------------
   GDM::trust : actual energy change is       -7.154524797670092E-005
   GDM::trust : predicted energy change was   -1.918374406600704E-004
   GDM::trust : updated trust radius is        0.330000000000000     
   GDM:         diagonal hessian shift is      0.000000000000000E+000
   GDM::PreWSS: input subspace size is                 19
   GDM::PreWSS: working subspace size set to           18
   GDM::PrEWSS: # of linearly dependent vectors =            0
   GDM::PrEWSS: Max dev from orthonormality =   5.764020857834673E-011
   GDM::BFGS:   lowest Hinv e-value    0.206127118486256     
   GDM::BFGS:   highest Hinv e-value    4.80091001393788     
   GDM::      : max scaling in EWCs is          2.32014664888535     
   GDM::      : max rotation in step is        5.649924239976543E-003
   GDM::        grad.step =  -3.360821563219977E-005
   ------- Leaving GDM -- hopefully with a step in the right direction! --------
 
   24    -272.1491733044      2.45E-03  Gap = 0.00 eV  Normal BFGS step
 
   ------------------- Entering Geometric Direct Minimization ------------------
   GDM::trust : actual energy change is       -1.459433281070233E-005
   GDM::trust : predicted energy change was   -5.041232344829966E-005
   GDM::trust : updated trust radius is        0.330000000000000     
   GDM:         diagonal hessian shift is      0.000000000000000E+000
   GDM::PreWSS: input subspace size is                 19
   GDM::PreWSS: working subspace size set to           18
   GDM::PrEWSS: # of linearly dependent vectors =            0
   GDM::PrEWSS: Max dev from orthonormality =   5.430552535434785E-011
   GDM::BFGS:   lowest Hinv e-value    0.208221428140496     
   GDM::BFGS:   highest Hinv e-value    4.78613373218561     
   GDM::      : max scaling in EWCs is          2.32770093912264     
   GDM::      : max rotation in step is       -2.946273839291950E-003
   GDM::        grad.step =  -5.406319012920163E-006
   ------- Leaving GDM -- hopefully with a step in the right direction! --------
 
   25    -272.1491878987      8.16E-04  Gap = 0.00 eV  Normal BFGS step
 
   ------------------- Entering Geometric Direct Minimization ------------------
   GDM::trust : actual energy change is       -2.575255052761349E-006
   GDM::trust : predicted energy change was   -8.109478519380245E-006
   GDM::trust : updated trust radius is        0.330000000000000     
   GDM:         diagonal hessian shift is      0.000000000000000E+000
   GDM::PreWSS: input subspace size is                 19
   GDM::PreWSS: working subspace size set to           18
   GDM::PrEWSS: # of linearly dependent vectors =            0
   GDM::PrEWSS: Max dev from orthonormality =   1.347969305620644E-011
   GDM::BFGS:   lowest Hinv e-value    0.206263482285296     
   GDM::BFGS:   highest Hinv e-value    4.79910218547668     
   GDM::      : max scaling in EWCs is          2.32712542234186     
   GDM::      : max rotation in step is       -8.042100065479866E-004
   GDM::        grad.step =  -7.664888286100725E-007
   ------- Leaving GDM -- hopefully with a step in the right direction! --------
 
   26    -272.1491904740      3.96E-04  Gap = 0.00 eV  Normal BFGS step
 
   ------------------- Entering Geometric Direct Minimization ------------------
   GDM::trust : actual energy change is       -3.786795446103497E-007
   GDM::trust : predicted energy change was   -1.149733242915109E-006
   GDM::trust : updated trust radius is        0.330000000000000     
   GDM:         diagonal hessian shift is      0.000000000000000E+000
   GDM::PreWSS: input subspace size is                 19
   GDM::PreWSS: working subspace size set to           18
   GDM::PrEWSS: # of linearly dependent vectors =            0
   GDM::PrEWSS: Max dev from orthonormality =   1.727770010395702E-011
   GDM::BFGS:   lowest Hinv e-value    0.190402965240257     
   GDM::BFGS:   highest Hinv e-value    4.75985716481735     
   GDM::      : max scaling in EWCs is          2.32591555078807     
   GDM::      : max rotation in step is        1.625561525508957E-004
   GDM::        grad.step =  -7.519348987001176E-008
   ------- Leaving GDM -- hopefully with a step in the right direction! --------
 
   27    -272.1491908526      1.43E-04  Gap = -nan eV  Normal BFGS step
 
   ------------------- Entering Geometric Direct Minimization ------------------
   GDM::trust : actual energy change is       -4.099007355762296E-008
   GDM::trust : predicted energy change was   -1.127902348050177E-007
   GDM::trust : updated trust radius is        0.330000000000000     
   GDM:         diagonal hessian shift is      0.000000000000000E+000
   GDM::PreWSS: input subspace size is                 19
   GDM::PreWSS: working subspace size set to           18
   GDM::PrEWSS: # of linearly dependent vectors =            0
   GDM::PrEWSS: Max dev from orthonormality =   1.663875981439134E-011
   GDM::BFGS:   lowest Hinv e-value    0.191915201604674     
   GDM::BFGS:   highest Hinv e-value    4.76938174672079     
   GDM::      : max scaling in EWCs is          2.32640521033109     
   GDM::      : max rotation in step is        7.285538307404093E-005
   GDM::        grad.step =  -6.152745520099214E-009
   ------- Leaving GDM -- hopefully with a step in the right direction! --------
 
   28    -272.1491908936      2.54E-05  Gap = 93.59 eV  Normal BFGS step
 
   ------------------- Entering Geometric Direct Minimization ------------------
   GDM::trust : actual energy change is       -2.749573013716144E-009
   GDM::trust : predicted energy change was   -9.229118280148821E-009
   GDM::trust : updated trust radius is        0.330000000000000     
   GDM:         diagonal hessian shift is      0.000000000000000E+000
   GDM::PreWSS: input subspace size is                 19
   GDM::PreWSS: working subspace size set to           18
   GDM::PrEWSS: # of linearly dependent vectors =            0
   GDM::PrEWSS: Max dev from orthonormality =   3.094408063120113E-011
   GDM::BFGS:   lowest Hinv e-value    0.191338548728425     
   GDM::BFGS:   highest Hinv e-value    4.82692369042753     
   GDM::      : max scaling in EWCs is          2.32651789366864     
   GDM::      : max rotation in step is       -2.955776428838035E-005
   GDM::        grad.step =  -7.135234491912286E-010
   ------- Leaving GDM -- hopefully with a step in the right direction! --------
 
   29    -272.1491908964      6.55E-06  Gap = 93.59 eV  Normal BFGS step
 
   ------------------- Entering Geometric Direct Minimization ------------------
   GDM::trust : actual energy change is       -3.456648300925735E-010
   GDM::trust : predicted energy change was   -1.070285173786843E-009
   GDM::trust : updated trust radius is        0.330000000000000     
   GDM:         diagonal hessian shift is      0.000000000000000E+000
   GDM::PreWSS: input subspace size is                 19
   GDM::PreWSS: working subspace size set to           18
   GDM::PrEWSS: # of linearly dependent vectors =            0
   GDM::PrEWSS: Max dev from orthonormality =   1.883128375457233E-011
   GDM::BFGS:   lowest Hinv e-value    0.191865417215181     
   GDM::BFGS:   highest Hinv e-value    4.76956852735913     
   GDM::      : max scaling in EWCs is          2.32648430382098     
   GDM::      : max rotation in step is        6.603345247377989E-006
   GDM::        grad.step =  -5.100011043572473E-011
   ------- Leaving GDM -- hopefully with a step in the right direction! --------
 
   30    -272.1491908967      3.01E-06  Gap = 93.59 eV  Normal BFGS step
 
   ------------------- Entering Geometric Direct Minimization ------------------
   GDM::trust : actual energy change is       -2.751221472863108E-011
   GDM::trust : predicted energy change was   -7.650016565358709E-011
   GDM::trust : updated trust radius is        0.330000000000000     
   GDM:         diagonal hessian shift is      0.000000000000000E+000
   GDM::PreWSS: input subspace size is                 19
   GDM::PreWSS: working subspace size set to           18
   GDM::PrEWSS: # of linearly dependent vectors =            0
   GDM::PrEWSS: Max dev from orthonormality =   8.386821792605303E-011
   GDM::BFGS:   lowest Hinv e-value    0.191323383737976     
   GDM::BFGS:   highest Hinv e-value    4.82351881492199     
   GDM::      : max scaling in EWCs is          2.32648415468533     
   GDM::      : max rotation in step is        3.018273702997610E-006
   GDM::        grad.step =  -1.546158599338078E-011
   ------- Leaving GDM -- hopefully with a step in the right direction! --------
 
   31    -272.1491908967      1.24E-06  Gap = 93.59 eV  Normal BFGS step
 
   ------------------- Entering Geometric Direct Minimization ------------------
   GDM::trust : actual energy change is        1.199396137963049E-011
   GDM::trust : predicted energy change was   -2.319237899007116E-011
   GDM::trust : updated trust radius is        0.108900000000000     
   GDM::WARNING energy changes are now smaller than effective accuracy.
   GDM::        calculation will continue, but THRESH should be increased
   GDM::        or SCF_CONVERGENCE decreased.
   GDM::        effective_thresh =   2.044488883745643E-010
   GDM:         diagonal hessian shift is      0.000000000000000E+000
   GDM::PreWSS: input subspace size is                 19
   GDM::PreWSS: working subspace size set to           18
   GDM::PrEWSS: # of linearly dependent vectors =            0
   GDM::PrEWSS: Max dev from orthonormality =   9.756216667877737E-011
   GDM::BFGS:   lowest Hinv e-value    0.190852913176469     
   GDM::BFGS:   highest Hinv e-value    4.71509431484799     
   GDM::      : max scaling in EWCs is          2.32648178332193     
   GDM::      : max rotation in step is       -1.950637614146024E-006
   GDM::        grad.step =  -3.204618991215529E-011
   ------- Leaving GDM -- hopefully with a step in the right direction! --------
 
   32    -272.1491908967      4.82E-06  Gap = 93.59 eV  Normal BFGS step
 
   ------------------- Entering Geometric Direct Minimization ------------------
   GDM::trust : actual energy change is       -1.529087967355736E-011
   GDM::trust : predicted energy change was   -4.806928486823293E-011
   GDM::trust : updated trust radius is        0.330000000000000     
   GDM:         diagonal hessian shift is      0.000000000000000E+000
   GDM::PreWSS: input subspace size is                 19
   GDM::PreWSS: working subspace size set to           15
   GDM::PrEWSS: # of linearly dependent vectors =            0
   GDM::PrEWSS: Max dev from orthonormality =   5.888746955340363E-012
   GDM::BFGS:   lowest Hinv e-value    0.205928486606711     
   GDM::BFGS:   highest Hinv e-value    4.71783679040511     
   GDM::      : max scaling in EWCs is          2.32648107316016     
   GDM::      : max rotation in step is       -4.757284298337941E-007
   GDM::        grad.step =  -8.509097985930697E-013
   ------- Leaving GDM -- hopefully with a step in the right direction! --------
 
   33    -272.1491908967      2.91E-07  Gap = 93.59 eV  Normal BFGS step
 
   ------------------- Entering Geometric Direct Minimization ------------------
   GDM::trust : actual energy change is        4.547473508864641E-013
   GDM::trust : predicted energy change was   -1.276364697889604E-012
   GDM::trust : updated trust radius is        0.108900000000000     
   GDM::WARNING energy changes are now smaller than effective accuracy.
   GDM::        calculation will continue, but THRESH should be increased
   GDM::        or SCF_CONVERGENCE decreased.
   GDM::        effective_thresh =   2.044488883745643E-010
   GDM:         diagonal hessian shift is      0.000000000000000E+000
   GDM::PreWSS: input subspace size is                 16
   GDM::PreWSS: working subspace size set to           16
   GDM::PrEWSS: # of linearly dependent vectors =            1
   GDM::PrEWSS: Max dev from orthonormality =   6.568770267306734E-012
   GDM::BFGS:   lowest Hinv e-value    0.198222871900655     
   GDM::BFGS:   highest Hinv e-value    4.71045104757527     
   GDM::      : max scaling in EWCs is          2.32648532293840     
   GDM::      : max rotation in step is        4.392702300668281E-007
   GDM::        grad.step =  -1.110651035709163E-012
   ------- Leaving GDM -- hopefully with a step in the right direction! --------
 
   34    -272.1491908967      8.85E-07  Gap = 93.59 eV  Normal BFGS step
 
   ------------------- Entering Geometric Direct Minimization ------------------
   GDM::trust : actual energy change is       -5.684341886080801E-013
   GDM::trust : predicted energy change was   -1.665976553563744E-012
   GDM::trust : updated trust radius is        0.330000000000000     
   GDM:         diagonal hessian shift is      0.000000000000000E+000
   GDM::PreWSS: input subspace size is                 17
   GDM::PreWSS: working subspace size set to           16
   GDM::PrEWSS: # of linearly dependent vectors =            1
   GDM::PrEWSS: Max dev from orthonormality =   5.592831753276073E-012
   GDM::BFGS:   lowest Hinv e-value    0.184149123905325     
   GDM::BFGS:   highest Hinv e-value    4.69146402112489     
   GDM::      : max scaling in EWCs is          2.32648144861379     
   GDM::      : max rotation in step is       -1.512307399212267E-007
   GDM::        grad.step =  -7.714622258999257E-014
   ------- Leaving GDM -- hopefully with a step in the right direction! --------
 
   35    -272.1491908967      1.28E-07  Gap = 93.59 eV  Normal BFGS step
 
   ------------------- Entering Geometric Direct Minimization ------------------
   GDM::trust : actual energy change is       -5.684341886080801E-014
   GDM::trust : predicted energy change was   -1.157193338849889E-013
   GDM::trust : updated trust radius is        0.330000000000000     
   GDM:         diagonal hessian shift is      0.000000000000000E+000
   GDM::PreWSS: input subspace size is                 17
   GDM::PreWSS: working subspace size set to           16
   GDM::PrEWSS: # of linearly dependent vectors =            0
   GDM::PrEWSS: Max dev from orthonormality =   9.564522784888396E-011
   GDM::BFGS:   lowest Hinv e-value    0.182442411386752     
   GDM::BFGS:   highest Hinv e-value    4.74490616279127     
   GDM::      : max scaling in EWCs is          2.32648218416334     
   GDM::      : max rotation in step is        8.197347839003501E-008
   GDM::        grad.step =  -3.443857028621972E-014
   ------- Leaving GDM -- hopefully with a step in the right direction! --------
 
   36    -272.1491908967      6.50E-08  Gap = 93.59 eV  Normal BFGS step
 
   ------------------- Entering Geometric Direct Minimization ------------------
   GDM::trust : actual energy change is        2.273736754432321E-013
   GDM::trust : predicted energy change was   -5.165785542932958E-014
   GDM::trust : updated trust radius is        0.108900000000000     
   GDM::WARNING energy changes are now smaller than effective accuracy.
   GDM::        calculation will continue, but THRESH should be increased
   GDM::        or SCF_CONVERGENCE decreased.
   GDM::        effective_thresh =   2.044488883745643E-010
   GDM:         diagonal hessian shift is      0.000000000000000E+000
   GDM::PreWSS: input subspace size is                 17
   GDM::PreWSS: working subspace size set to           13
   GDM::PrEWSS: # of linearly dependent vectors =            0
   GDM::PrEWSS: Max dev from orthonormality =   1.453142467466861E-011
   GDM::BFGS:   lowest Hinv e-value    0.180381258143452     
   GDM::BFGS:   highest Hinv e-value    2.48908080273719     
   GDM::      : max scaling in EWCs is          2.32648192751698     
   GDM::      : max rotation in step is        1.095919317031500E-008
   GDM::        grad.step =  -1.342621587161648E-015
   ------- Leaving GDM -- hopefully with a step in the right direction! --------
 
   37    -272.1491908967      1.23E-08  Gap = 93.59 eV  Normal BFGS step
 
   ------------------- Entering Geometric Direct Minimization ------------------
   GDM::trust : actual energy change is        1.705302565824240E-013
   GDM::trust : predicted energy change was   -2.013932380742472E-015
   GDM::trust : updated trust radius is        0.108900000000000     
   GDM::WARNING energy changes are now smaller than effective accuracy.
   GDM::        calculation will continue, but THRESH should be increased
   GDM::        or SCF_CONVERGENCE decreased.
   GDM::        effective_thresh =   2.044488883745643E-010
   GDM:         diagonal hessian shift is      0.000000000000000E+000
   GDM::PreWSS: input subspace size is                 14
   GDM::PreWSS: working subspace size set to           14
   GDM::PrEWSS: # of linearly dependent vectors =            1
   GDM::PrEWSS: Max dev from orthonormality =   1.468436136575768E-011
   GDM::BFGS:   lowest Hinv e-value    0.180538648602644     
   GDM::BFGS:   highest Hinv e-value    2.48857088673228     
   GDM::      : max scaling in EWCs is          2.32648194271999     
   GDM::      : max rotation in step is        4.985014507559964E-009
   GDM::        grad.step =  -7.413029705919953E-016
   ------- Leaving GDM -- hopefully with a step in the right direction! --------
 
   38    -272.1491908967      9.60E-09 Convergence criterion met
 ---------------------------------------
 One-Electron    Energy =  -631.6549931764
 Total Coulomb   Energy =   269.1245637244
 Alpha Exchange  Energy =    -3.1690145520
 Beta  Exchange  Energy =    -2.8310246414
 DFT   Exchange  Energy =   -24.0905986127
 DFT Correlation Energy =    -1.6047019172
 Nuclear Repu.   Energy =   122.0765782786
 Nuclear Attr.   Energy =  -880.4973836956
 Kinetic         Energy =   248.8423905191
 <S^2> = 2.0314
 SCF time:  CPU 133.71 s  wall 27.75 s
 SCF   energy in the final basis set = -272.1491908967
 Total energy in the final basis set = -272.1491908967
 
 --------------------------------------------------------------
 
                    Orbital Energies (a.u.)
 --------------------------------------------------------------
 
 Alpha MOs
 -- Occupied --
-19.206 -19.192 -19.192  -2.054  -1.319  -1.316  -1.245  -0.967
 -0.903  -0.896  -0.464  -0.436  -0.411  -0.405  -0.397  -0.383
 -0.355  -0.343  -0.327
 -- Virtual --
 -0.111  -0.007  -0.004  -0.001   0.018   0.019   0.023   0.100
  0.106   0.114   0.165   0.166   0.167   0.167   0.174   0.202
  0.205   0.223   0.232   0.244   0.249   0.264   0.264   0.269
  0.270   0.377   0.379   0.745   0.747   1.089   1.118   1.124
  1.137   1.147   1.152   1.153   1.189   1.203   1.583   1.680
  1.684   1.689   1.723   1.724   1.732   1.753   1.754   1.769
  1.773   1.840   1.847   1.849   1.936   1.941   2.123   2.127
 16.706
 
 Beta MOs
 -- Occupied --
-19.187 -19.174 -19.174  -2.050  -1.308  -1.304  -1.248  -0.913
 -0.853  -0.848  -0.404  -0.387  -0.380  -0.370  -0.342  -0.334
 -0.306
 -- Virtual --
 -0.214  -0.212  -0.108  -0.003  -0.001   0.001   0.021   0.022
  0.024   0.114   0.116   0.123   0.168   0.169   0.173   0.175
  0.176   0.207   0.209   0.233   0.239   0.246   0.255   0.265
  0.266   0.276   0.283   0.383   0.384   0.751   0.752   1.127
  1.130   1.136   1.164   1.173   1.178   1.189   1.222   1.236
  1.607   1.717   1.721   1.722   1.751   1.754   1.764   1.766
  1.787   1.792   1.805   1.868   1.869   1.869   1.973   1.978
  2.156   2.159  16.707
 --------------------------------------------------------------
 
          Ground-State Mulliken Net Atomic Charges

     Atom                 Charge (a.u.)    Spin (a.u.)
  --------------------------------------------------------
      1 Zr                    1.343037      -0.050974
      2 O                    -0.401744       0.749354
      3 O                    -0.470646       0.650810
      4 O                    -0.470646       0.650810
  --------------------------------------------------------
  Sum of atomic charges =     0.000000
  Sum of spin   charges =     2.000000

 -----------------------------------------------------------------
                    Cartesian Multipole Moments
 -----------------------------------------------------------------
    Charge (ESU x 10^10)
                 0.0000
    Dipole Moment (Debye)
         X       0.0000      Y       0.0000      Z       0.3954
       Tot       0.3954
    Quadrupole Moments (Debye-Ang)
        XX     -42.7715     XY       0.0000     YY     -31.5164
        XZ       0.0000     YZ       0.0000     ZZ     -44.4456
    Octopole Moments (Debye-Ang^2)
       XXX       0.0000    XXY       0.0000    XYY       0.0000
       YYY       0.0000    XXZ       8.8225    XYZ       0.0000
       YYZ       0.1603    XZZ       0.0000    YZZ       0.0000
       ZZZ      -6.8949
    Hexadecapole Moments (Debye-Ang^3)
      XXXX    -204.9536   XXXY       0.0000   XXYY     -39.2591
      XYYY       0.0000   YYYY     -29.5968   XXXZ       0.0000
      XXYZ       0.0000   XYYZ       0.0000   YYYZ       0.0000
      XXZZ     -72.4415   XYZZ       0.0000   YYZZ     -39.6727
      XZZZ       0.0000   YZZZ       0.0000   ZZZZ    -221.9874
 -----------------------------------------------------------------
Archival summary:
1\1\hpc3743\SP\ProcedureUnspecified\BasisUnspecified\r13(\liqiuy\FriJan1720:06:462020FriJan1720:06:462020\0\\#,ProcedureUnspecified,BasisUnspecified,\\28,3\Zr\O,1,1.72816\O,1,1.72931,2,120.005\O,1,1.72931,2,120.005,3,-180,0\\\@

 Total job time:  32.28s(wall), 140.29s(cpu) 
 Fri Jan 17 20:06:46 2020

        *************************************************************
        *                                                           *
        *  Thank you very much for using Q-Chem.  Have a nice day.  *
        *                                                           *
        *************************************************************


0 sent ACK to 0 
now end server 0 ... 
cleanup process ... done

Running Job 2 of 2 ZrOx.in
qchem ZrOx.in_42627.1 /tmp/5732881.priya/ZrOx.save/ 1
/usr/usc/qchem/4.4/bin/mpi/mpirun_qchem -machinefile /usr/usc/qchem/4.4/bin/mpi/machines -np 1 /usr/usc/qchem/4.4/exe/qcprog.exe ZrOx.in_42627.1 /tmp/5732881.priya/ZrOx.save/

Process 0 of 1 is on hpc3743.hpcc.usc.edu - thread support 0
initial socket setup ...start
initial socket setup ...done 
now start server 0 ... 
Check license passed

                  Welcome to Q-Chem
     A Quantum Leap Into The Future Of Chemistry


 Q-Chem 4.4, Q-Chem, Inc., Pleasanton, CA (2016)

 Y. Shao,  Z. Gan,  E. Epifanovsky,  A. T. B. Gilbert,  M. Wormit,  
 J. Kussmann,  A. W. Lange,  A. Behn,  J. Deng,  X. Feng,  D. Ghosh,  
 M. Goldey,  P. R. Horn,  L. D. Jacobson,  I. Kaliman,  F.Rob,  
 R. Z. Khaliullin,  T. Kus,  A. Landau,  J. Liu,  E. I. Proynov,  Y. M. Rhee,  
 R. M. Richard,  M. A. Rohrdanz,  R. P. Steele,  E. J. Sundstrom,  
 H. L. Woodcock III,  P. M. Zimmerman,  D. Zuev,  B. Albrecht,  E. Alguire,  
 B. Austin,  S. A. Baeppler,  G. J. O. Beran,  Y. A. Bernard,  E. Berquist,  
 K. Brandhorst,  K. B. Bravaya,  S. T. Brown,  D. Casanova,  C.-M. Chang,  
 Y. Chen,  S. H. Chien,  K. D. Closser,  M. P. Coons,  D. L. Crittenden,  
 S. Dasgupta,  M. Diedenhofen,  R. A. DiStasio Jr.,  H. Do,  A. D. Dutoi,  
 R. G. Edgar,  P.-T. Fang,  S. Fatehi,  Q. Feng,  L. Fusti-Molnar,  
 A. Ghysels,  A. Golubeva-Zadorozhnaya,  J. Gomes,  A. Gunina,  
 M. W. D. Hanson-Heine,  P. H. P. Harbach,  A. W. Hauser,  E. G. Hohenstein,  
 Z. C. Holden,  K. Hui,  T.-C. Jagau,  H. Ji,  B. Kaduk,  K. Khistyaev,  
 Jaehoon Kim,  Jihan Kim,  R. A. King,  P. Klunzinger,  D. Kosenkov,  
 T. Kowalczyk,  C. M. Krauter,  A. Kunitsa,  K. U. Lao,  A. Laurent,  
 K. V. Lawler,  D. Lefrancois,  S. Lehtola,  S. V. Levchenko,  C. Y. Lin,  
 Y.-S. Lin,  F. Liu,  E. Livshits,  R. C. Lochan,  A. Luenser,  P. Manohar,  
 S. F. Manzer,  S.-P. Mao,  Y. Mao,  N. Mardirossian,  A. V. Marenich,  
 L. A. Martinez-Martinez,  S. A. Maurer,  N. J. Mayhall,  J.-M. Mewes,  
 A. F. Morrison,  K. Nanda,  C. M. Oana,  R. Olivares-Amaya,  D. P. O'Neill,  
 J. A. Parkhill,  T. M. Perrine,  R. Peverati,  P. A. Pieniazek,  F. Plasser,  
 A. Prociuk,  D. R. Rehn,  E. Rosta,  N. J. Russ,  N. Sergueev,  
 S. M. Sharada,  S. Sharma,  D. W. Small,  A. Sodt,  T. Stauch,  T. Stein,  
 D. Stuck,  Y.-C. Su,  A. J. W. Thom,  T. Tsuchimochi,  L. Vogt,  O. Vydrov,  
 T. Wang,  M. A. Watson,  J. Wenzel,  A. White,  C. F. Williams,  
 V. Vanovschi,  S. Yeganeh,  S. R. Yost,  Z.-Q. You,  I. Y. Zhang,  X. Zhang,  
 Y. Zhao,  B. R. Brooks,  G. K. L. Chan,  D. M. Chipman,  C. J. Cramer,  
 W. A. Goddard III,  M. S. Gordon,  W. J. Hehre,  A. Klamt,  
 H. F. Schaefer III,  M. W. Schmidt,  C. D. Sherrill,  D. G. Truhlar,  
 A. Warshel,  X. Xu,  A. Aspuru-Guzik,  R. Baer,  A. T. Bell,  N. A. Besley,  
 J.-D. Chai,  A. Dreuw,  B. D. Dunietz,  T. R. Furlani,  S. R. Gwaltney,  
 C.-P. Hsu,  Y. Jung,  J. Kong,  D. S. Lambrecht,  W. Liang,  C. Ochsenfeld,  
 V. A. Rassolov,  L. V. Slipchenko,  J. E. Subotnik,  T. Van Voorhis,  
 J. M. Herbert,  A. I. Krylov,  P. M. W. Gill,  M. Head-Gordon

 Contributors to earlier versions of Q-Chem not listed above: 
 R. D. Adamson,  J. Baker,  E. F. C. Byrd,  A. K. Chakraborty,  C.-L. Cheng,  
 H. Dachsel,  R. J. Doerksen,  G. Hawkins,  A. Heyden,  S. Hirata,  
 G. Kedziora,  F. J. Keil,  C. Kelley,  P. P. Korambath,  W. Kurlancheek,  
 A. M. Lee,  M. S. Lee,  D. Liotard,  I. Lotan,  P. E. Maslen,  N. Nair,  
 D. Neuhauser,  R. Olson,  B. Peters,  J. Ritchie,  N. E. Schultz,  
 N. Shenvi,  A. C. Simmonett,  K. S. Thanthiriwatte,  Q. Wu,  W. Zhang

 Please cite Q-Chem as follows:
 Y. Shao et al., Mol. Phys. 113, 184-215 (2015)
 DOI: 10.1080/00268976.2014.952696

 Q-Chem 4.4.1 for Intel X86 Linux

 Parts of Q-Chem use Armadillo 5.200.1 (Boston Tea Smuggler).
 http://arma.sourceforge.net/

 Q-Chem begins on Fri Jan 17 20:06:49 2020  

Host: 
0

     Scratch files written to /tmp/5732881.priya/ZrOx.save//
 Jul2716 11668_ 21447  21445 5558   
 Parallel job on  1  processors
Processing $rem in /usr/usc/qchem/4.4/config/preferences.
 MEM_TOTAL  2000 
The previous job contains 0 fragments, simply inherited here

Checking the input file for inconsistencies... 	...done.

--------------------------------------------------------------
User input:
--------------------------------------------------------------

$comment
-----------------------
A GEOMETRY OPTIMIZATION
-----------------------
$end

$molecule
READ
$end

$rem
JOBTYPE   OPT
METHOD   B3LYP
BASIS   GEN
ECP   GEN
SCF_GUESS   READ
MAX_SCF_CYCLES   200
SCF_CONVERGENCE 8
SCF_PRINT 1
PDB_PRINT 2
THRESH 14
VARTHRESH 14
INCDFT FALSE
SYMMETRY False
Sym_ignore True
SCF_ALGORITHM GDM
XC_GRID 000128000302
GEOM_OPT_MAX_CYCLES 200
DFT_D           EMPIRICAL_GRIMME3
DFT_D3_S6       1000
DFT_D3_RS6     1261
DFT_D3_S8      1703
DFT_D3_3BODY    FALSE
SCF_PRINT 1
PDB_PRINT 2
$end

$basis
O
6-31+G**
****
S
6-31+G**
****
Zr
LanL2DZ
****
$end

$ecp
Zr
LanL2DZ
****
$end

--------------------------------------------------------------
 ----------------------------------------------------------------
             Standard Nuclear Orientation (Angstroms)
    I     Atom           X                Y                Z
 ----------------------------------------------------------------
    1      Zr      0.0000000000     0.0000000000     0.0001400000
    2      O       0.0000000000     0.0000000000     1.7283000000
    3      O      -1.4975500000     0.0000000000    -0.8646400000
    4      O       1.4975500000     0.0000000000    -0.8646400000
 ----------------------------------------------------------------
 Nuclear Repulsion Energy =   122.0765782812 hartrees
 There are       19 alpha and       17 beta electrons

 Q-Chem warning in module /home/scratch/svnadmin/11668_zgan/qchem/forms1/BasisType.C, line 1419:

 Setting pure/cartesian flag to 2111 for general basis


 Requested basis set is non-standard
 There are 23 shells and 76 basis functions

 Total QAlloc Memory Limit   2000 MB
 Mega-Array Size        61 MB
 MEM_STATIC part        62 MB
 A cutoff of  1.0D-14 yielded    273 shell pairs
 There are      3036 function pairs (      3456 Cartesian)
 
 -------------------------------------------------------
 OpenMP Integral Computing Module                       
 Release: version 1.0, May 2013, Q-Chem Inc. Pittsburgh 
 -------------------------------------------------------
 Integral Job Info:
 Integral job number is                      11
 Integral operator is                         1
 short-range coefficients                     0
 long-range coefficients              100000000
 Omega coefficients                           0
 if combine SR and LR in K                    0
 Integral screening is                        0
 Integral computing path is                   2
 max size of driver memory is            800000
 size of driver memory is                593474
 size of scratch memory is             11771240
 max col of scratch BK array               1296
 max len of scratch array in speh3          155
 max len of scratch index in speh4           18
 max int batch size is                      520
 min int batch size is                       52
 fixed nKL is                                52
 max L of basis functions is                  2
 order of int derivative is                   0
 number of shells is                         23
 number of basis is                          81
 number of cartesian basis is                81
 number of contracted shell pairs           273
 number of primitive shell pairs           1339
 maxK2 (contraction) of shell pair           36
 max number of K2 of shell pair               1
 max number of CS2 of shell pair             24
 max number of PS2 of shell pair            108
 mem total for path MDJ                   17464
 -------------------------------------------------------
 Requested basis set is non-standard
 Compound shells will be simplified
 There are 32 shells and 76 basis functions
 A cutoff of  1.0D-14 yielded    525 shell pairs
 There are      3009 function pairs (      3429 Cartesian)
 Smallest overlap matrix eigenvalue = 7.66E-04

 Scale SEOQF with 1.000000e-01/1.000000e-01/1.000000e-01

 Standard Electronic Orientation quadrupole field applied
 Nucleus-field energy     =    -0.0000000026 hartrees
 Guess MOs from SCF MO coefficient file
 Reading MOs from coefficient file
 Reading MOs from coefficient file
 An unrestricted hybrid HF-DFT SCF calculation will be
 performed using Geometric Direct Minimization
 Exchange:     0.2000 Hartree-Fock + 0.0800 Slater + 0.7200 B88
 Correlation:  0.1900 VWN1RPA + 0.8100 LYP
 Using Euler-Maclaurin-Lebedev (128,302) quadrature formula
 Dispersion:   Grimme D3
 SCF converges when RMS gradient is below 1.0E-08
 Maximum number of minimization steps = 200
 using 12 threads for integral computing 
 -------------------------------------------------------
 OpenMP BLAS3 based DFT computing Module                
 Release: version 1.0, May 2013, Q-Chem Inc. Pittsburgh 
 -------------------------------------------------------
 
   ------------------- Entering Geometric Direct Minimization ------------------
   GDM:         diagonal hessian shift is      0.000000000000000E+000
   GDM::PreWSS: input subspace size is                  1
   GDM::PreWSS: working subspace size set to            1
   GDM::PrEWSS: # of linearly dependent vectors =            0
   GDM::PrEWSS: Max dev from orthonormality =   0.000000000000000E+000
   GDM::BFGS:   lowest Hinv e-value     1.00000000000000     
   GDM::BFGS:   highest Hinv e-value    1.00000000000000     
   GDM::      : max scaling in EWCs is          2.32648193761335     
   GDM::      : max rotation in step is        1.551056133108156E-009
   GDM::        grad.step =  -5.233489976467369E-018
   ------- Leaving GDM -- hopefully with a step in the right direction! --------
 
 ---------------------------------------
  Cycle       Energy        RMS Gradient
 ---------------------------------------
    1    -272.1491908967      8.67E-10  Gap = 0.00 eV  Normal BFGS step
 
   ------------------- Entering Geometric Direct Minimization ------------------
   GDM::trust : actual energy change is        1.705302565824240E-013
   GDM::trust : predicted energy change was   -7.850234964701054E-018
   GDM::trust : updated trust radius is        0.108900000000000     
   GDM::WARNING energy changes are now smaller than effective accuracy.
   GDM::        calculation will continue, but THRESH should be increased
   GDM::        or SCF_CONVERGENCE decreased.
   GDM::        effective_thresh =   1.900000000000000E-010
   GDM:         diagonal hessian shift is      0.000000000000000E+000
   GDM::PreWSS: input subspace size is                  2
   GDM::PreWSS: working subspace size set to            2
   GDM::PrEWSS: # of linearly dependent vectors =            1
   GDM::PrEWSS: Max dev from orthonormality =   0.000000000000000E+000
   GDM::BFGS:   lowest Hinv e-value    0.395399127392516     
   GDM::BFGS:   highest Hinv e-value    3.05730504248853     
   GDM::      : max scaling in EWCs is          2.32648193263268     
   GDM::      : max rotation in step is        2.812713150450398E-009
   GDM::        grad.step =  -6.698515121566209E-018
   ------- Leaving GDM -- hopefully with a step in the right direction! --------
 
    2    -272.1491908967      8.14E-10 Convergence criterion met
 ---------------------------------------
 One-Electron    Energy =  -631.6549933425
 Total Coulomb   Energy =   269.1245639024
 Alpha Exchange  Energy =    -3.1690145527
 Beta  Exchange  Energy =    -2.8310246427
 DFT   Exchange  Energy =   -24.0905986222
 DFT Correlation Energy =    -1.6047019176
 Nuclear Repu.   Energy =   122.0765782786
 Nuclear Attr.   Energy =  -880.4973839534
 Kinetic         Energy =   248.8423906109
 <S^2> = 2.0314
 SCF time:  CPU 7.51 s  wall 0.90 s
 SCF   energy in the final basis set = -272.1491908967
 Total energy in the final basis set = -272.1491908967
 
 --------------------------------------------------------------
 
                    Orbital Energies (a.u.)
 --------------------------------------------------------------
 
 Alpha MOs
 -- Occupied --
-19.206 -19.192 -19.192  -2.054  -1.319  -1.316  -1.245  -0.967
 -0.903  -0.896  -0.464  -0.436  -0.411  -0.405  -0.397  -0.383
 -0.355  -0.343  -0.327
 -- Virtual --
 -0.111  -0.007  -0.004  -0.001   0.018   0.019   0.023   0.100
  0.106   0.114   0.165   0.166   0.167   0.167   0.174   0.202
  0.205   0.223   0.232   0.244   0.249   0.264   0.264   0.269
  0.270   0.377   0.379   0.745   0.747   1.089   1.118   1.124
  1.137   1.147   1.152   1.153   1.189   1.203   1.583   1.680
  1.684   1.689   1.723   1.724   1.732   1.753   1.754   1.769
  1.773   1.840   1.847   1.849   1.936   1.941   2.123   2.127
 16.706
 
 Beta MOs
 -- Occupied --
-19.187 -19.174 -19.174  -2.050  -1.308  -1.304  -1.248  -0.913
 -0.853  -0.848  -0.404  -0.387  -0.380  -0.370  -0.342  -0.334
 -0.306
 -- Virtual --
 -0.214  -0.212  -0.108  -0.003  -0.001   0.001   0.021   0.022
  0.024   0.114   0.116   0.123   0.168   0.169   0.173   0.175
  0.176   0.207   0.209   0.233   0.239   0.246   0.255   0.265
  0.266   0.276   0.283   0.383   0.384   0.751   0.752   1.127
  1.130   1.136   1.164   1.173   1.178   1.189   1.222   1.236
  1.607   1.717   1.721   1.722   1.751   1.754   1.764   1.766
  1.787   1.792   1.805   1.868   1.869   1.869   1.973   1.978
  2.156   2.159  16.707
 --------------------------------------------------------------
 
          Ground-State Mulliken Net Atomic Charges

     Atom                 Charge (a.u.)    Spin (a.u.)
  --------------------------------------------------------
      1 Zr                    1.343037      -0.050974
      2 O                    -0.401744       0.749354
      3 O                    -0.470646       0.650810
      4 O                    -0.470646       0.650810
  --------------------------------------------------------
  Sum of atomic charges =     0.000000
  Sum of spin   charges =     2.000000

 -----------------------------------------------------------------
                    Cartesian Multipole Moments
 -----------------------------------------------------------------
    Charge (ESU x 10^10)
                 0.0000
    Dipole Moment (Debye)
         X       0.0000      Y       0.0000      Z       0.3954
       Tot       0.3954
    Quadrupole Moments (Debye-Ang)
        XX     -42.7715     XY       0.0000     YY     -31.5164
        XZ       0.0000     YZ       0.0000     ZZ     -44.4456
    Octopole Moments (Debye-Ang^2)
       XXX       0.0000    XXY       0.0000    XYY       0.0000
       YYY       0.0000    XXZ       8.8225    XYZ       0.0000
       YYZ       0.1603    XZZ       0.0000    YZZ       0.0000
       ZZZ      -6.8949
    Hexadecapole Moments (Debye-Ang^3)
      XXXX    -204.9536   XXXY       0.0000   XXYY     -39.2591
      XYYY       0.0000   YYYY     -29.5968   XXXZ       0.0000
      XXYZ       0.0000   XYYZ       0.0000   YYYZ       0.0000
      XXZZ     -72.4415   XYZZ       0.0000   YYZZ     -39.6727
      XZZZ       0.0000   YZZZ       0.0000   ZZZZ    -221.9874
 -----------------------------------------------------------------
 Calculating analytic gradient of the SCF energy
 Gradient of SCF Energy
            1           2           3           4
    1  -0.0000000  -0.0000000   0.1106149  -0.1106148
    2  -0.0000000   0.0000000   0.0000000   0.0000000
    3  -0.0116838  -0.1274750   0.0695793   0.0695795
 Max gradient component =       1.275E-01
 RMS gradient           =       6.490E-02
 Gradient time:  CPU 7.89 s  wall 1.37 s
 Geometry Optimization Parameters
   NAtoms,    NIC,     NZ,  NCons,   NDum,   NFix, NCnnct, MaxDiis
        4      17       0       0       0       0       0       0


** GEOMETRY OPTIMIZATION IN DELOCALIZED INTERNAL COORDINATES **
   Searching for a Minimum

   Optimization Cycle:   1

                       Coordinates (Angstroms)
     ATOM                X               Y               Z
      1  Zr        0.0000000000    0.0000000000    0.0001400000
      2  O         0.0000000000    0.0000000000    1.7283000000
      3  O        -1.4975500000    0.0000000000   -0.8646400000
      4  O         1.4975500000    0.0000000000   -0.8646400000
   Point Group: c1    Number of degrees of freedom:     6


   Energy is   -272.149190897


 Attempting to Generate Delocalized Internal Coordinates

  ***ERROR*** Wrong Number of Internal Coordinates
              Should be:   6  Found:   5
**WARNING** Problems with Internal Coordinates
  Switching to Cartesian Coordinates

 Translations and Rotations Projected Out of Hessian

  6 Hessian modes will be used to form the next step
  Hessian Eigenvalues:
     1.000000    1.000000    1.000000    1.000000    1.000000    1.000000

 Minimum Search - Taking Simple RFO Step
 Searching for Lamda that Minimizes Along All modes
 Value Taken    Lamda =  -0.04821529
 Step Taken.  Stepsize is  0.214471

                             Maximum     Tolerance    Cnvgd?
         Gradient           0.127475      0.000300      NO
         Displacement       0.121611      0.001200      NO
         Energy change     *********      0.000001      NO

 ----------------------------------------------------------------
             Standard Nuclear Orientation (Angstroms)
    I     Atom           X                Y                Z
 ----------------------------------------------------------------
    1      Zr      0.0000000000     0.0000000000     0.0060384067
    2      O      -0.0000000106     0.0000000000     1.7926540023
    3      O      -1.5533923980     0.0000000000    -0.8997661956
    4      O       1.5533924077     0.0000000000    -0.8997662134
 ----------------------------------------------------------------
 Nuclear Repulsion Energy =   117.6274049802 hartrees
 There are       19 alpha and       17 beta electrons
 Applying Cartesian multipole field
    Component          Value
    ---------          -----
     (2,0,0)        1.00000E-11
     (0,2,0)        2.00000E-11
     (0,0,2)       -3.00000E-11
 Nucleus-field energy     =    -0.0000000028 hartrees
 Requested basis set is non-standard
 There are 23 shells and 76 basis functions
 A cutoff of  1.0D-14 yielded    273 shell pairs
 There are      3036 function pairs (      3456 Cartesian)
 Requested basis set is non-standard
 Compound shells will be simplified
 There are 32 shells and 76 basis functions
 A cutoff of  1.0D-14 yielded    525 shell pairs
 There are      3009 function pairs (      3429 Cartesian)
 Smallest overlap matrix eigenvalue = 8.99E-04
 Guess MOs from SCF MO coefficient file
 Reading MOs from coefficient file
 Reading MOs from coefficient file
 An unrestricted hybrid HF-DFT SCF calculation will be
 performed using Geometric Direct Minimization
 Exchange:     0.2000 Hartree-Fock + 0.0800 Slater + 0.7200 B88
 Correlation:  0.1900 VWN1RPA + 0.8100 LYP
 Using Euler-Maclaurin-Lebedev (128,302) quadrature formula
 Dispersion:   Grimme D3
 SCF converges when RMS gradient is below 1.0E-08
 Maximum number of minimization steps = 200
 Geometry optimization detected.  Setting ReadMinima to 0
 Setting SaveMinima to 0
 using 12 threads for integral computing 
 -------------------------------------------------------
 OpenMP BLAS3 based DFT computing Module                
 Release: version 1.0, May 2013, Q-Chem Inc. Pittsburgh 
 -------------------------------------------------------
 
   ------------------- Entering Geometric Direct Minimization ------------------
   GDM:         diagonal hessian shift is      0.000000000000000E+000
   GDM::PreWSS: input subspace size is                  1
   GDM::PreWSS: working subspace size set to            1
   GDM::PrEWSS: # of linearly dependent vectors =            0
   GDM::PrEWSS: Max dev from orthonormality =   2.220446049250313E-016
   GDM::BFGS:   lowest Hinv e-value     1.00000000000000     
   GDM::BFGS:   highest Hinv e-value    1.00000000000000     
   GDM::      : max scaling in EWCs is          2.48105936617040     
   GDM::      : max rotation in step is       -6.531991098556464E-002
   GDM::        grad.step =  -1.093989165990636E-002
   ------- Leaving GDM -- hopefully with a step in the right direction! --------
 
 ---------------------------------------
  Cycle       Energy        RMS Gradient
 ---------------------------------------
    1    -272.1799070701      2.63E-02  Gap = 0.00 eV  Normal BFGS step
 
   ------------------- Entering Geometric Direct Minimization ------------------
   GDM::trust : actual energy change is       -4.469223212197448E-003
   GDM::trust : predicted energy change was   -1.640983748985954E-002
   GDM::trust : updated trust radius is        0.330000000000000     
   GDM:         diagonal hessian shift is      0.000000000000000E+000
   GDM::PreWSS: input subspace size is                  2
   GDM::PreWSS: working subspace size set to            2
   GDM::PrEWSS: # of linearly dependent vectors =            0
   GDM::PrEWSS: Max dev from orthonormality =   3.844147222764605E-015
   GDM::BFGS:   lowest Hinv e-value    0.458151756474209     
   GDM::BFGS:   highest Hinv e-value    1.86387210321243     
   GDM::      : max scaling in EWCs is          2.34624306422062     
   GDM::      : max rotation in step is       -8.129985969511708E-002
   GDM::        grad.step =  -5.130069393836523E-003
   ------- Leaving GDM -- hopefully with a step in the right direction! --------
 
    2    -272.1843762934      2.82E-02  Gap = 0.00 eV  Normal BFGS step
 
   ------------------- Entering Geometric Direct Minimization ------------------
   GDM::trust : actual energy change is        1.350238623729183E-003
   GDM::trust : predicted energy change was   -7.695104090754786E-003
   GDM::trust : updated trust radius is        0.108900000000000     
   GDM::search:  On step            1 .  The current bracket is:
       left   : x =  0.0000E+00, e =      -272.1843762934, g = -0.4787E-01
       current: x =  0.1072E+00, e =      -272.1830260547, g =  0.7125E-01
       right  : x =  0.1000E+04, e =      1000.0000000000, g =  0.1000E+04
       next   : x =  0.4241E-01
   GDM::      : max rotation in step is       -3.218010014451407E-002
   ------- Leaving GDM -- hopefully with a step in the right direction! --------
 
    3    -272.1830260547      1.10E-02  Gap = 0.00 eV  Line search: overstep
 
   ------------------- Entering Geometric Direct Minimization ------------------
   GDM::trust : actual energy change is       -9.976963486337809E-004
   GDM::trust : predicted energy change was   -7.695104090754786E-003
   GDM::trust : updated trust radius is        0.108900000000000     
   GDM:         diagonal hessian shift is      0.000000000000000E+000
   GDM::PreWSS: input subspace size is                  3
   GDM::PreWSS: working subspace size set to            3
   GDM::PrEWSS: # of linearly dependent vectors =            0
   GDM::PrEWSS: Max dev from orthonormality =   7.509548538564559E-013
   GDM::BFGS:   lowest Hinv e-value    0.220731326698487     
   GDM::BFGS:   highest Hinv e-value    1.78405165408106     
   GDM::      : max scaling in EWCs is          2.45899280999585     
   GDM::      : max rotation in step is       -6.127853569085478E-002
   GDM::        grad.step =  -2.125494864038676E-003
   ------- Leaving GDM -- hopefully with a step in the right direction! --------
 
    4    -272.1853739897      1.53E-02  Gap = 0.00 eV  Normal BFGS step
 
   ------------------- Entering Geometric Direct Minimization ------------------
   GDM::trust : actual energy change is        3.692625471671818E-004
   GDM::trust : predicted energy change was   -3.188242296058014E-003
   GDM::trust : updated trust radius is        0.108900000000000     
   GDM::search:  On step            1 .  The current bracket is:
       left   : x =  0.0000E+00, e =      -272.1853739897, g = -0.2646E-01
       current: x =  0.8033E-01, e =      -272.1850047272, g =  0.3615E-01
       right  : x =  0.1000E+04, e =      1000.0000000000, g =  0.1000E+04
       next   : x =  0.3422E-01
   GDM::      : max rotation in step is       -2.610418397830646E-002
   ------- Leaving GDM -- hopefully with a step in the right direction! --------
 
[...]
   GDM::      : max scaling in EWCs is          2.23166115502215     
   GDM::      : max rotation in step is       -3.273692491576496E-005
   GDM::        grad.step =  -2.922903760243706E-009
   ------- Leaving GDM -- hopefully with a step in the right direction! --------
 
   12    -272.2163266352      1.13E-05  Gap = 0.53 eV  Normal BFGS step
 
   ------------------- Entering Geometric Direct Minimization ------------------
   GDM::trust : actual energy change is       -1.464172783016693E-009
   GDM::trust : predicted energy change was   -4.384355640365559E-009
   GDM::trust : updated trust radius is        0.330000000000000     
   GDM:         diagonal hessian shift is      0.000000000000000E+000
   GDM::PreWSS: input subspace size is                 11
   GDM::PreWSS: working subspace size set to           11
   GDM::PrEWSS: # of linearly dependent vectors =            6
   GDM::PrEWSS: Max dev from orthonormality =   5.403496261546792E-010
   GDM::BFGS:   lowest Hinv e-value    0.187174252844887     
   GDM::BFGS:   highest Hinv e-value    6.79395957694761     
   GDM::      : max scaling in EWCs is          2.23163594220026     
   GDM::      : max rotation in step is        2.045281697180796E-005
   GDM::        grad.step =  -4.179467961241239E-010
   ------- Leaving GDM -- hopefully with a step in the right direction! --------
 
   13    -272.2163266366      6.20E-06  Gap = 0.53 eV  Normal BFGS step
 
   ------------------- Entering Geometric Direct Minimization ------------------
   GDM::trust : actual energy change is       -1.726334630802739E-010
   GDM::trust : predicted energy change was   -6.269201941861861E-010
   GDM::trust : updated trust radius is        0.330000000000000     
   GDM:         diagonal hessian shift is      0.000000000000000E+000
   GDM::PreWSS: input subspace size is                 12
   GDM::PreWSS: working subspace size set to           12
   GDM::PrEWSS: # of linearly dependent vectors =            8
   GDM::PrEWSS: Max dev from orthonormality =   2.522543840477454E-010
   GDM::BFGS:   lowest Hinv e-value    0.190032096609587     
   GDM::BFGS:   highest Hinv e-value    7.23196393115058     
   GDM::      : max scaling in EWCs is          2.23163086376050     
   GDM::      : max rotation in step is        1.293278072327326E-005
   GDM::        grad.step =  -1.840343391986347E-010
   ------- Leaving GDM -- hopefully with a step in the right direction! --------
 
   14    -272.2163266368      4.12E-06  Gap = 0.53 eV  Normal BFGS step
 
   ------------------- Entering Geometric Direct Minimization ------------------
   GDM::trust : actual energy change is        2.478373062331229E-011
   GDM::trust : predicted energy change was   -2.760515087979520E-010
   GDM::trust : updated trust radius is        0.108900000000000     
   GDM::WARNING energy changes are now smaller than effective accuracy.
   GDM::        calculation will continue, but THRESH should be increased
   GDM::        or SCF_CONVERGENCE decreased.
   GDM::        effective_thresh =   2.502119227087984E-009
   GDM:         diagonal hessian shift is      0.000000000000000E+000
   GDM::PreWSS: input subspace size is                 13
   GDM::PreWSS: working subspace size set to           13
   GDM::PrEWSS: # of linearly dependent vectors =            9
   GDM::PrEWSS: Max dev from orthonormality =   1.824329992627938E-010
   GDM::BFGS:   lowest Hinv e-value    0.190125119670957     
   GDM::BFGS:   highest Hinv e-value    6.84430709804501     
   GDM::      : max scaling in EWCs is          2.23163002632530     
   GDM::      : max rotation in step is       -6.289610803052002E-006
   GDM::        grad.step =  -1.601339739556389E-010
   ------- Leaving GDM -- hopefully with a step in the right direction! --------
 
   15    -272.2163266368      5.44E-06  Gap = 0.53 eV  Normal BFGS step
 
   ------------------- Entering Geometric Direct Minimization ------------------
   GDM::trust : actual energy change is       -8.088818503892981E-011
   GDM::trust : predicted energy change was   -2.402009609334584E-010
   GDM::trust : updated trust radius is        0.330000000000000     
   GDM:         diagonal hessian shift is      0.000000000000000E+000
   GDM::PreWSS: input subspace size is                 14
   GDM::PreWSS: working subspace size set to           14
   GDM::PrEWSS: # of linearly dependent vectors =           10
   GDM::PrEWSS: Max dev from orthonormality =   2.933033538266017E-010
   GDM::BFGS:   lowest Hinv e-value    0.190258736153013     
   GDM::BFGS:   highest Hinv e-value    6.91960698654870     
   GDM::      : max scaling in EWCs is          2.23163163621812     
   GDM::      : max rotation in step is       -1.481665680394751E-006
   GDM::        grad.step =  -1.997580124635743E-012
   ------- Leaving GDM -- hopefully with a step in the right direction! --------
 
   16    -272.2163266369      4.84E-07  Gap = 0.53 eV  Normal BFGS step
 
   ------------------- Entering Geometric Direct Minimization ------------------
   GDM::trust : actual energy change is       -1.080024958355352E-012
   GDM::trust : predicted energy change was   -2.996370186953615E-012
   GDM::trust : updated trust radius is        0.330000000000000     
   GDM:         diagonal hessian shift is      0.000000000000000E+000
   GDM::PreWSS: input subspace size is                 15
   GDM::PreWSS: working subspace size set to           15
   GDM::PrEWSS: # of linearly dependent vectors =           11
   GDM::PrEWSS: Max dev from orthonormality =   1.588403505947689E-010
   GDM::BFGS:   lowest Hinv e-value    0.190246493155910     
   GDM::BFGS:   highest Hinv e-value    7.14382005456267     
   GDM::      : max scaling in EWCs is          2.23163263813201     
   GDM::      : max rotation in step is       -6.683681369777721E-007
   GDM::        grad.step =  -3.036208511304434E-013
   ------- Leaving GDM -- hopefully with a step in the right direction! --------
 
   17    -272.2163266369      1.46E-07  Gap = 0.53 eV  Normal BFGS step
 
   ------------------- Entering Geometric Direct Minimization ------------------
   GDM::trust : actual energy change is       -1.705302565824240E-013
   GDM::trust : predicted energy change was   -4.554312766956653E-013
   GDM::trust : updated trust radius is        0.330000000000000     
   GDM:         diagonal hessian shift is      0.000000000000000E+000
   GDM::PreWSS: input subspace size is                 16
   GDM::PreWSS: working subspace size set to           16
   GDM::PrEWSS: # of linearly dependent vectors =           12
   GDM::PrEWSS: Max dev from orthonormality =   5.421857407483799E-011
   GDM::BFGS:   lowest Hinv e-value    0.190275798132904     
   GDM::BFGS:   highest Hinv e-value    7.04534643322966     
   GDM::      : max scaling in EWCs is          2.23163296898491     
   GDM::      : max rotation in step is        7.300477685663872E-008
   GDM::        grad.step =  -6.110218906309872E-015
   ------- Leaving GDM -- hopefully with a step in the right direction! --------
 
   18    -272.2163266369      2.78E-08  Gap = 0.53 eV  Normal BFGS step
 
   ------------------- Entering Geometric Direct Minimization ------------------
   GDM::trust : actual energy change is       -1.136868377216160E-013
   GDM::trust : predicted energy change was   -9.165328359464807E-015
   GDM::trust : updated trust radius is        0.330000000000000     
   GDM:         diagonal hessian shift is      0.000000000000000E+000
   GDM::PreWSS: input subspace size is                 17
   GDM::PreWSS: working subspace size set to           15
   GDM::PrEWSS: # of linearly dependent vectors =           11
   GDM::PrEWSS: Max dev from orthonormality =   1.758147238906105E-010
   GDM::BFGS:   lowest Hinv e-value    0.240831993175757     
   GDM::BFGS:   highest Hinv e-value    7.24753803106025     
   GDM::      : max scaling in EWCs is          2.23163298279141     
   GDM::      : max rotation in step is        3.051307884695905E-008
   GDM::        grad.step =  -6.802837846784013E-016
   ------- Leaving GDM -- hopefully with a step in the right direction! --------
 
   19    -272.2163266369      1.09E-08  Gap = 0.53 eV  Normal BFGS step
 
   ------------------- Entering Geometric Direct Minimization ------------------
   GDM::trust : actual energy change is        1.705302565824240E-013
   GDM::trust : predicted energy change was   -1.020425677017602E-015
   GDM::trust : updated trust radius is        0.108900000000000     
   GDM::WARNING energy changes are now smaller than effective accuracy.
   GDM::        calculation will continue, but THRESH should be increased
   GDM::        or SCF_CONVERGENCE decreased.
   GDM::        effective_thresh =   2.502119227087984E-009
   GDM:         diagonal hessian shift is      0.000000000000000E+000
   GDM::PreWSS: input subspace size is                 16
   GDM::PreWSS: working subspace size set to           15
   GDM::PrEWSS: # of linearly dependent vectors =           12
   GDM::PrEWSS: Max dev from orthonormality =   2.038931523618004E-012
   GDM::BFGS:   lowest Hinv e-value    0.285034128002639     
   GDM::BFGS:   highest Hinv e-value    7.38580609589980     
   GDM::      : max scaling in EWCs is          2.23163299330126     
   GDM::      : max rotation in step is        1.035521738347603E-008
   GDM::        grad.step =  -1.926274375265796E-016
   ------- Leaving GDM -- hopefully with a step in the right direction! --------
 
   20    -272.2163266369      4.01E-09 Convergence criterion met
 ---------------------------------------
 One-Electron    Energy =  -606.9103383876
 Total Coulomb   Energy =   256.5722292657
 Alpha Exchange  Energy =    -3.1359771467
 Beta  Exchange  Energy =    -2.8345388899
 DFT   Exchange  Energy =   -23.9321322014
 DFT Correlation Energy =    -1.5826752957
 Nuclear Repu.   Energy =   109.6071060188
 Nuclear Attr.   Energy =  -854.5613923834
 Kinetic         Energy =   247.6510539958
 <S^2> = 2.0210
 SCF time:  CPU 55.24 s  wall 5.68 s
 SCF   energy in the final basis set = -272.2163266369
 Total energy in the final basis set = -272.2163266369
 
 --------------------------------------------------------------
 
                    Orbital Energies (a.u.)
 --------------------------------------------------------------
 
 Alpha MOs
 -- Occupied --
-19.223 -19.223 -19.166  -2.086  -1.310  -1.293  -1.289  -0.970
 -0.950  -0.887  -0.436  -0.434  -0.394  -0.380  -0.379  -0.373
 -0.353  -0.345  -0.330
 -- Virtual --
 -0.138  -0.078  -0.055  -0.009  -0.004   0.001   0.014   0.032
  0.034   0.097   0.142   0.157   0.161   0.162   0.166   0.174
  0.189   0.198   0.221   0.232   0.233   0.249   0.253   0.253
  0.256   0.344   0.352   0.590   0.621   1.057   1.104   1.105
  1.115   1.148   1.158   1.183   1.193   1.206   1.555   1.648
  1.660   1.708   1.721   1.725   1.727   1.737   1.760   1.763
  1.774   1.799   1.819   1.825   1.851   1.865   1.910   2.008
 11.859
 
 Beta MOs
 -- Occupied --
-19.199 -19.199 -19.159  -2.089  -1.311  -1.295  -1.293  -0.902
 -0.880  -0.866  -0.374  -0.371  -0.358  -0.354  -0.345  -0.326
 -0.308
 -- Virtual --
 -0.207  -0.202  -0.139  -0.077  -0.054  -0.007   0.000   0.018
  0.019   0.044   0.046   0.097   0.146   0.163   0.164   0.168
  0.172   0.179   0.191   0.204   0.234   0.234   0.237   0.251
  0.253   0.254   0.263   0.346   0.353   0.595   0.624   1.120
  1.122   1.130   1.163   1.165   1.177   1.203   1.218   1.224
  1.578   1.680   1.682   1.763   1.770   1.772   1.779   1.788
  1.791   1.792   1.804   1.826   1.836   1.839   1.865   1.898
  1.942   2.021  11.859
 --------------------------------------------------------------
 
          Ground-State Mulliken Net Atomic Charges

     Atom                 Charge (a.u.)    Spin (a.u.)
  --------------------------------------------------------
      1 Zr                    1.568633      -0.165694
      2 O                    -0.520899       0.263185
      3 O                    -0.523866       0.951255
      4 O                    -0.523868       0.951255
  --------------------------------------------------------
  Sum of atomic charges =     0.000000
  Sum of spin   charges =     2.000000

 -----------------------------------------------------------------
                    Cartesian Multipole Moments
 -----------------------------------------------------------------
    Charge (ESU x 10^10)
                 0.0000
    Dipole Moment (Debye)
         X       0.0000      Y       0.0000      Z      -1.1435
       Tot       1.1435
    Quadrupole Moments (Debye-Ang)
        XX     -48.0512     XY       0.0000     YY     -32.3871
        XZ       0.0001     YZ       0.0000     ZZ     -47.0547
    Octopole Moments (Debye-Ang^2)
       XXX      -0.0001    XXY       0.0000    XYY       0.0000
       YYY       0.0000    XXZ      14.9225    XYZ       0.0000
       YYZ      -0.3611    XZZ      -0.0001    YZZ       0.0000
       ZZZ     -17.2950
    Hexadecapole Moments (Debye-Ang^3)
      XXXX    -304.5637   XXXY       0.0000   XXYY     -52.7129
      XYYY       0.0000   YYYY     -32.5006   XXXZ       0.0007
      XXYZ       0.0000   XYYZ       0.0002   YYYZ       0.0000
      XXZZ     -97.8900   XYZZ       0.0000   YYZZ     -44.5821
      XZZZ       0.0007   YZZZ       0.0000   ZZZZ    -249.6285
 -----------------------------------------------------------------
 Calculating analytic gradient of the SCF energy
 Gradient of SCF Energy
            1           2           3           4
    1  -0.0000000  -0.0000002  -0.0000859   0.0000861
    2  -0.0000000   0.0000000   0.0000000  -0.0000000
    3   0.0000999  -0.0000000  -0.0000499  -0.0000499
 Max gradient component =       9.986E-05
 RMS gradient           =       4.980E-05
 Gradient time:  CPU 7.41 s  wall 1.13 s
 Geometry Optimization Parameters
   NAtoms,    NIC,     NZ,  NCons,   NDum,   NFix, NCnnct, MaxDiis
        4      17       0       0       0       0       0       0

 Cartesian Hessian Update
 Hessian Updated using BFGS Update


** GEOMETRY OPTIMIZATION IN CARTESIAN COORDINATES **
   Searching for a Minimum

   Optimization Cycle:  15

                       Coordinates (Angstroms)
     ATOM                X               Y               Z
      1  Zr        0.0000029962    0.0000000000    0.0275081077
      2  O        -0.0000055675    0.0000000000    1.8164243384
      3  O        -1.7605976568    0.0000000000   -0.9223824303
      4  O         1.7606002273    0.0000000000   -0.9223900157
   Point Group: c1    Number of degrees of freedom:     6


   Energy is   -272.216326637


 Translations and Rotations Projected Out of Hessian

  5 Hessian modes will be used to form the next step
  Hessian Eigenvalues:
     0.015922    0.241527    0.793616    1.000000    1.000000

 Minimum Search - Taking Simple RFO Step
 Searching for Lamda that Minimizes Along All modes
 Value Taken    Lamda =   0.00000000
 Step Taken.  Stepsize is  0.001012

                             Maximum     Tolerance    Cnvgd?
         Gradient           0.000100      0.000300     YES
         Displacement       0.000706      0.001200     YES
         Energy change     -0.000013      0.000001      NO


                       Distance Matrix (Angstroms)
             Zr(  1)   O (  2)   O (  3)
   O (  2)  1.788916
   O (  3)  2.000502  3.255879
   O (  4)  2.000502  3.255893  3.521198
 
 Final energy is   -272.216326636858     


 ******************************
 **  OPTIMIZATION CONVERGED  **
 ******************************

                       Coordinates (Angstroms)
     ATOM                X               Y               Z
      1  Zr        0.0000029962    0.0000000000    0.0275081077
      2  O        -0.0000055675    0.0000000000    1.8164243384
      3  O        -1.7605976568    0.0000000000   -0.9223824303
      4  O         1.7606002273    0.0000000000   -0.9223900157

Z-matrix Print:
$molecule
0 3
Zr
O  1 1.788916
O  1 2.000502 2 118.347759
O  1 2.000502 2 118.348545 3 -180.000000 0
$end

 
 --------------------------------------------------------------
 
                    Orbital Energies (a.u.)
 --------------------------------------------------------------
 
 Alpha MOs
 -- Occupied --
-19.223 -19.223 -19.166  -2.086  -1.310  -1.293  -1.289  -0.970
 -0.950  -0.887  -0.436  -0.434  -0.394  -0.380  -0.379  -0.373
 -0.353  -0.345  -0.330
 -- Virtual --
 -0.138  -0.078  -0.055  -0.009  -0.004   0.001   0.014   0.032
  0.034   0.097   0.142   0.157   0.161   0.162   0.166   0.174
  0.189   0.198   0.221   0.232   0.233   0.249   0.253   0.253
  0.256   0.344   0.352   0.590   0.621   1.057   1.104   1.105
  1.115   1.148   1.158   1.183   1.193   1.206   1.555   1.648
  1.660   1.708   1.721   1.725   1.727   1.737   1.760   1.763
  1.774   1.799   1.819   1.825   1.851   1.865   1.910   2.008
 11.859
 
 Beta MOs
 -- Occupied --
-19.199 -19.199 -19.159  -2.089  -1.311  -1.295  -1.293  -0.902
 -0.880  -0.866  -0.374  -0.371  -0.358  -0.354  -0.345  -0.326
 -0.308
 -- Virtual --
 -0.207  -0.202  -0.139  -0.077  -0.054  -0.007   0.000   0.018
  0.019   0.044   0.046   0.097   0.146   0.163   0.164   0.168
  0.172   0.179   0.191   0.204   0.234   0.234   0.237   0.251
  0.253   0.254   0.263   0.346   0.353   0.595   0.624   1.120
  1.122   1.130   1.163   1.165   1.177   1.203   1.218   1.224
  1.578   1.680   1.682   1.763   1.770   1.772   1.779   1.788
  1.791   1.792   1.804   1.826   1.836   1.839   1.865   1.898
  1.942   2.021  11.859
 --------------------------------------------------------------
 
          Ground-State Mulliken Net Atomic Charges

     Atom                 Charge (a.u.)    Spin (a.u.)
  --------------------------------------------------------
      1 Zr                    1.568633      -0.165694
      2 O                    -0.520899       0.263185
      3 O                    -0.523866       0.951255
      4 O                    -0.523868       0.951255
  --------------------------------------------------------
  Sum of atomic charges =     0.000000
  Sum of spin   charges =     2.000000

 -----------------------------------------------------------------
                    Cartesian Multipole Moments
 -----------------------------------------------------------------
    Charge (ESU x 10^10)
                 0.0000
    Dipole Moment (Debye)
         X       0.0000      Y       0.0000      Z      -1.1435
       Tot       1.1435
    Quadrupole Moments (Debye-Ang)
        XX     -48.0512     XY       0.0000     YY     -32.3871
        XZ       0.0001     YZ       0.0000     ZZ     -47.0547
    Octopole Moments (Debye-Ang^2)
       XXX      -0.0001    XXY       0.0000    XYY       0.0000
       YYY       0.0000    XXZ      14.9225    XYZ       0.0000
       YYZ      -0.3611    XZZ      -0.0001    YZZ       0.0000
       ZZZ     -17.2950
    Hexadecapole Moments (Debye-Ang^3)
      XXXX    -304.5637   XXXY       0.0000   XXYY     -52.7129
      XYYY       0.0000   YYYY     -32.5006   XXXZ       0.0007
      XXYZ       0.0000   XYYZ       0.0002   YYYZ       0.0000
      XXZZ     -97.8900   XYZZ       0.0000   YYZZ     -44.5821
      XZZZ       0.0007   YZZZ       0.0000   ZZZZ    -249.6285
 -----------------------------------------------------------------
Archival summary:
1\1\hpc3743\OPT\ProcedureUnspecified\BasisUnspecified\r13(\liqiuy\FriJan1720:09:182020FriJan1720:09:182020\0\\#,OPT,ProcedureUnspecified,BasisUnspecified,\\28,3\Zr\O,1,1.78892\O,1,2.0005,2,118.348\O,1,2.0005,2,118.349,3,-180,0\\\@

 Total job time:  148.89s(wall), 1145.78s(cpu) 
 Fri Jan 17 20:09:18 2020

        *************************************************************
        *                                                           *
        *  Thank you very much for using Q-Chem.  Have a nice day.  *
        *                                                           *
        *************************************************************


0 sent ACK to 0 
now end server 0 ... 
cleanup process ... done
