
Running Job 1 of 2 ZrOx.in
qchem ZrOx.in_16322.0 /tmp/5732888.priya/ZrOx.save/ 1
/usr/usc/qchem/4.4/bin/mpi/mpirun_qchem -machinefile /usr/usc/qchem/4.4/bin/mpi/machines -np 1 /usr/usc/qchem/4.4/exe/qcprog.exe ZrOx.in_16322.0 /tmp/5732888.priya/ZrOx.save/

Process 0 of 1 is on hpc3913.hpcc.usc.edu - thread support 0
initial socket setup ...start
initial socket setup ...done 
now start server 0 ... 
Check license passed

                  Welcome to Q-Chem
     A Quantum Leap Into The Future Of Chemistry


 Q-Chem 4.4, Q-Chem, Inc., Pleasanton, CA (2016)

 Y. Shao,  Z. Gan,  E. Epifanovsky,  A. T. B. Gilbert,  M. Wormit,  
 J. Kussmann,  A. W. Lange,  A. Behn,  J. Deng,  X. Feng,  D. Ghosh,  
 M. Goldey,  P. R. Horn,  L. D. Jacobson,  I. Kaliman,  F.Rob,  
 R. Z. Khaliullin,  T. Kus,  A. Landau,  J. Liu,  E. I. Proynov,  Y. M. Rhee,  
 R. M. Richard,  M. A. Rohrdanz,  R. P. Steele,  E. J. Sundstrom,  
 H. L. Woodcock III,  P. M. Zimmerman,  D. Zuev,  B. Albrecht,  E. Alguire,  
 B. Austin,  S. A. Baeppler,  G. J. O. Beran,  Y. A. Bernard,  E. Berquist,  
 K. Brandhorst,  K. B. Bravaya,  S. T. Brown,  D. Casanova,  C.-M. Chang,  
 Y. Chen,  S. H. Chien,  K. D. Closser,  M. P. Coons,  D. L. Crittenden,  
 S. Dasgupta,  M. Diedenhofen,  R. A. DiStasio Jr.,  H. Do,  A. D. Dutoi,  
 R. G. Edgar,  P.-T. Fang,  S. Fatehi,  Q. Feng,  L. Fusti-Molnar,  
 A. Ghysels,  A. Golubeva-Zadorozhnaya,  J. Gomes,  A. Gunina,  
 M. W. D. Hanson-Heine,  P. H. P. Harbach,  A. W. Hauser,  E. G. Hohenstein,  
 Z. C. Holden,  K. Hui,  T.-C. Jagau,  H. Ji,  B. Kaduk,  K. Khistyaev,  
 Jaehoon Kim,  Jihan Kim,  R. A. King,  P. Klunzinger,  D. Kosenkov,  
 T. Kowalczyk,  C. M. Krauter,  A. Kunitsa,  K. U. Lao,  A. Laurent,  
 K. V. Lawler,  D. Lefrancois,  S. Lehtola,  S. V. Levchenko,  C. Y. Lin,  
 Y.-S. Lin,  F. Liu,  E. Livshits,  R. C. Lochan,  A. Luenser,  P. Manohar,  
 S. F. Manzer,  S.-P. Mao,  Y. Mao,  N. Mardirossian,  A. V. Marenich,  
 L. A. Martinez-Martinez,  S. A. Maurer,  N. J. Mayhall,  J.-M. Mewes,  
 A. F. Morrison,  K. Nanda,  C. M. Oana,  R. Olivares-Amaya,  D. P. O'Neill,  
 J. A. Parkhill,  T. M. Perrine,  R. Peverati,  P. A. Pieniazek,  F. Plasser,  
 A. Prociuk,  D. R. Rehn,  E. Rosta,  N. J. Russ,  N. Sergueev,  
 S. M. Sharada,  S. Sharma,  D. W. Small,  A. Sodt,  T. Stauch,  T. Stein,  
 D. Stuck,  Y.-C. Su,  A. J. W. Thom,  T. Tsuchimochi,  L. Vogt,  O. Vydrov,  
 T. Wang,  M. A. Watson,  J. Wenzel,  A. White,  C. F. Williams,  
 V. Vanovschi,  S. Yeganeh,  S. R. Yost,  Z.-Q. You,  I. Y. Zhang,  X. Zhang,  
 Y. Zhao,  B. R. Brooks,  G. K. L. Chan,  D. M. Chipman,  C. J. Cramer,  
 W. A. Goddard III,  M. S. Gordon,  W. J. Hehre,  A. Klamt,  
 H. F. Schaefer III,  M. W. Schmidt,  C. D. Sherrill,  D. G. Truhlar,  
 A. Warshel,  X. Xu,  A. Aspuru-Guzik,  R. Baer,  A. T. Bell,  N. A. Besley,  
 J.-D. Chai,  A. Dreuw,  B. D. Dunietz,  T. R. Furlani,  S. R. Gwaltney,  
 C.-P. Hsu,  Y. Jung,  J. Kong,  D. S. Lambrecht,  W. Liang,  C. Ochsenfeld,  
 V. A. Rassolov,  L. V. Slipchenko,  J. E. Subotnik,  T. Van Voorhis,  
 J. M. Herbert,  A. I. Krylov,  P. M. W. Gill,  M. Head-Gordon

 Contributors to earlier versions of Q-Chem not listed above: 
 R. D. Adamson,  J. Baker,  E. F. C. Byrd,  A. K. Chakraborty,  C.-L. Cheng,  
 H. Dachsel,  R. J. Doerksen,  G. Hawkins,  A. Heyden,  S. Hirata,  
 G. Kedziora,  F. J. Keil,  C. Kelley,  P. P. Korambath,  W. Kurlancheek,  
 A. M. Lee,  M. S. Lee,  D. Liotard,  I. Lotan,  P. E. Maslen,  N. Nair,  
 D. Neuhauser,  R. Olson,  B. Peters,  J. Ritchie,  N. E. Schultz,  
 N. Shenvi,  A. C. Simmonett,  K. S. Thanthiriwatte,  Q. Wu,  W. Zhang

 Please cite Q-Chem as follows:
 Y. Shao et al., Mol. Phys. 113, 184-215 (2015)
 DOI: 10.1080/00268976.2014.952696

 Q-Chem 4.4.1 for Intel X86 Linux

 Parts of Q-Chem use Armadillo 5.200.1 (Boston Tea Smuggler).
 http://arma.sourceforge.net/

 Q-Chem begins on Fri Jan 17 20:06:13 2020  

Host: 
0

     Scratch files written to /tmp/5732888.priya/ZrOx.save//
 Jul2716 11668_ 21447  21445 5558   
 Parallel job on  1  processors
Processing $rem in /usr/usc/qchem/4.4/config/preferences.
 MEM_TOTAL  2000 

Checking the input file for inconsistencies... 	...done.

--------------------------------------------------------------
User input:
--------------------------------------------------------------
$comment
--------------------------------------------------------
A SINGLE POINT DFT CALCULATION WITH BASIS SET PROJECTION
--------------------------------------------------------
$end

$molecule
0 3
Zr 0.00000 0.00000 -0.57097
S 0.00000 0.00000 1.50165
$end

$rem
JOBTYPE   SP
METHOD   B3LYP
BASIS   GEN
ECP   GEN
MAX_SCF_CYCLES   200
SCF_CONVERGENCE 8
SCF_PRINT 1
PDB_PRINT 2
THRESH 14
VARTHRESH 14
INCDFT FALSE
SYMMETRY False
Sym_ignore True
SCF_ALGORITHM GDM
XC_GRID 000128000302
DFT_D           EMPIRICAL_GRIMME3
DFT_D3_S6       1000
DFT_D3_RS6     1261
DFT_D3_S8      1703
DFT_D3_3BODY    FALSE
$end

$basis
O
6-31+G**
****
S
6-31+G**
****
Zr
LanL2DZ
****
$end

$ecp
Zr
LanL2DZ
****
$end

--------------------------------------------------------------
 ----------------------------------------------------------------
             Standard Nuclear Orientation (Angstroms)
    I     Atom           X                Y                Z
 ----------------------------------------------------------------
    1      Zr      0.0000000000     0.0000000000    -0.5709700000
    2      S       0.0000000000     0.0000000000     1.5016500000
 ----------------------------------------------------------------
 Nuclear Repulsion Energy =    49.0210488079 hartrees
 There are       15 alpha and       13 beta electrons

 Q-Chem warning in module /home/scratch/svnadmin/11668_zgan/qchem/forms1/BasisType.C, line 1419:

 Setting pure/cartesian flag to 2111 for general basis


 Requested basis set is non-standard
 There are 14 shells and 44 basis functions

 Total QAlloc Memory Limit   2000 MB
 Mega-Array Size        61 MB
 MEM_STATIC part        62 MB

                       Distance Matrix (Angstroms)
             Zr(  1)
   S (  2)  2.072620
 
 A cutoff of  1.0D-14 yielded    105 shell pairs
 There are      1053 function pairs (      1206 Cartesian)
 
 -------------------------------------------------------
 OpenMP Integral Computing Module                       
 Release: version 1.0, May 2013, Q-Chem Inc. Pittsburgh 
 -------------------------------------------------------
 Integral Job Info:
 Integral job number is                      11
 Integral operator is                         1
 short-range coefficients                     0
 long-range coefficients              100000000
 Omega coefficients                           0
 if combine SR and LR in K                    0
 Integral screening is                        0
 Integral computing path is                   2
 max size of driver memory is            800000
 size of driver memory is                593474
 size of scratch memory is             15166112
 max col of scratch BK array               1296
 max len of scratch array in speh3          155
 max len of scratch index in speh4           18
 max int batch size is                      520
 min int batch size is                       52
 fixed nKL is                                52
 max L of basis functions is                  2
 order of int derivative is                   0
 number of shells is                         14
 number of basis is                          47
 number of cartesian basis is                47
 number of contracted shell pairs           105
 number of primitive shell pairs            697
 maxK2 (contraction) of shell pair           36
 max number of K2 of shell pair               1
 max number of CS2 of shell pair              4
 max number of PS2 of shell pair             36
 mem total for path MDJ                   13132
 -------------------------------------------------------
 Requested basis set is non-standard
 Compound shells will be simplified
 There are 18 shells and 44 basis functions
 A cutoff of  1.0D-14 yielded    171 shell pairs
 There are      1041 function pairs (      1194 Cartesian)
 Smallest overlap matrix eigenvalue = 2.62E-03

 Scale SEOQF with 1.000000e-01/1.000000e-01/1.000000e-01

 Standard Electronic Orientation quadrupole field applied
 Nucleus-field energy     =    -0.0000000043 hartrees
 Guess MOs from core Hamiltonian diagonalization
 An unrestricted hybrid HF-DFT SCF calculation will be
 performed using Geometric Direct Minimization
 Exchange:     0.2000 Hartree-Fock + 0.0800 Slater + 0.7200 B88
 Correlation:  0.1900 VWN1RPA + 0.8100 LYP
 Using Euler-Maclaurin-Lebedev (128,302) quadrature formula
 Dispersion:   Grimme D3
 SCF converges when RMS gradient is below 1.0E-08
 Maximum number of minimization steps = 200
 using 12 threads for integral computing 
 -------------------------------------------------------
 OpenMP BLAS3 based DFT computing Module                
 Release: version 1.0, May 2013, Q-Chem Inc. Pittsburgh 
 -------------------------------------------------------
 
   ------------------- Entering Geometric Direct Minimization ------------------
   GDM:         diagonal hessian shift is      0.000000000000000E+000
   GDM::PreWSS: input subspace size is                  1
   GDM::PreWSS: working subspace size set to            1
   GDM::PrEWSS: # of linearly dependent vectors =            0
   GDM::PrEWSS: Max dev from orthonormality =   0.000000000000000E+000
   GDM::BFGS:   lowest Hinv e-value     1.00000000000000     
   GDM::BFGS:   highest Hinv e-value    1.00000000000000     
   GDM::      : max scaling in EWCs is          1.41421356237309     
   GDM::      : max rotation in step is        0.139255386199865     
   GDM::        grad.step =   -1.42525323688048     
   ------- Leaving GDM -- hopefully with a step in the right direction! --------
 
 ---------------------------------------
  Cycle       Energy        RMS Gradient
 ---------------------------------------
    1    -401.6270849055      1.53E+00  Gap = 0.00 eV  Descent step
 
   ------------------- Entering Geometric Direct Minimization ------------------
   GDM::trust : actual energy change is        -1.43472551779661     
   GDM::trust : predicted energy change was   -0.163350000000000     
   GDM::trust : updated trust radius is        0.330000000000000     
   GDM:         diagonal hessian shift is      0.000000000000000E+000
   GDM::PreWSS: input subspace size is                  2
   GDM::PreWSS: working subspace size set to            2
   GDM::PrEWSS: # of linearly dependent vectors =            0
   GDM::PrEWSS: Max dev from orthonormality =   1.783989622694548E-014
   GDM::BFGS:   lowest Hinv e-value   -3.517951975359286E-002
   GDM::BFGS:   highest Hinv e-value    1134.17125169289     
   GDM::BFGS:   rebuilding Hinv to be positive definite
   GDM::      : max scaling in EWCs is          1.41421356237309     
   GDM::      : max rotation in step is        0.184791661684256     
   GDM::        grad.step =   -1.50606207576885     
   ------- Leaving GDM -- hopefully with a step in the right direction! --------
 
    2    -403.0618104233      1.81E+00  Gap = 0.00 eV  Descent step
 
   ------------------- Entering Geometric Direct Minimization ------------------
   GDM::trust : actual energy change is        -1.47826940835171     
   GDM::trust : predicted energy change was   -0.303510290538380     
   GDM::trust : updated trust radius is        0.330000000000000     
   GDM:         diagonal hessian shift is      0.000000000000000E+000
   GDM::PreWSS: input subspace size is                  3
   GDM::PreWSS: working subspace size set to            3
   GDM::PrEWSS: # of linearly dependent vectors =            0
   GDM::PrEWSS: Max dev from orthonormality =   3.164968287450165E-013
   GDM::BFGS:   lowest Hinv e-value    0.305204529020621     
   GDM::BFGS:   highest Hinv e-value    262.480232256995     
   GDM::      : max scaling in EWCs is          1.41421356237309     
   GDM::      : max rotation in step is        4.648657840215861E-002
   GDM::        grad.step =   -1.35376450058467     
   ------- Leaving GDM -- hopefully with a step in the right direction! --------
 
    3    -404.5400798317      9.64E-01  Gap = 0.00 eV  Descent step
 
   ------------------- Entering Geometric Direct Minimization ------------------
   GDM::trust : actual energy change is        -1.37193013921973     
   GDM::trust : predicted energy change was   -0.141674186097142     
   GDM::trust : updated trust radius is        0.330000000000000     
   GDM::search:  On step            1 .  The current bracket is:
       left   : x =  0.0000E+00, e =      -404.5400798317, g = -0.9140E+01
       current: x =  0.1481E+00, e =      -405.9120099709, g = -0.9361E+01
       right  : x =  0.1000E+04, e =      1000.0000000000, g =  0.1000E+04
       next   : x =  0.1481E+01
   GDM::      : max rotation in step is        0.464865784021586     
   ------- Leaving GDM -- hopefully with a step in the right direction! --------
 
    4    -405.9120099709      3.11E+00  Gap = 0.00 eV  Line search: understep
 
   ------------------- Entering Geometric Direct Minimization ------------------
   GDM::trust : actual energy change is        -12.4742048474184     
   GDM::trust : predicted energy change was   -0.141674186097142     
   GDM::trust : updated trust radius is        0.330000000000000     
   GDM:         diagonal hessian shift is      0.000000000000000E+000
   GDM::PreWSS: input subspace size is                  4
   GDM::PreWSS: working subspace size set to            4
   GDM::PrEWSS: # of linearly dependent vectors =            0
   GDM::PrEWSS: Max dev from orthonormality =   2.225192252680586E-012
   GDM::BFGS:   lowest Hinv e-value    0.183151189557985     
   GDM::BFGS:   highest Hinv e-value    1601.99086759843     
   GDM::      : max scaling in EWCs is          1.41421356237309     
   GDM::      : max rotation in step is        0.156675860551635     
   GDM::        grad.step =   -2.96992762917904     
   ------- Leaving GDM -- hopefully with a step in the right direction! --------
 
    5    -417.0142846791      3.02E+00  Gap = 0.00 eV  Descent step
 
   ------------------- Entering Geometric Direct Minimization ------------------
   GDM::trust : actual energy change is        -2.86471069554648     
   GDM::trust : predicted energy change was   -0.335654577107853     
   GDM::trust : updated trust radius is        0.330000000000000     
   GDM:         diagonal hessian shift is      0.000000000000000E+000
   GDM::PreWSS: input subspace size is                  5
   GDM::PreWSS: working subspace size set to            5
   GDM::PrEWSS: # of linearly dependent vectors =            0
   GDM::PrEWSS: Max dev from orthonormality =   2.238147167599180E-012
   GDM::BFGS:   lowest Hinv e-value    0.467679803582461     
   GDM::BFGS:   highest Hinv e-value    1139.42301528978     
   GDM::      : max scaling in EWCs is          1.41421356237309     
   GDM::      : max rotation in step is       -8.264359887903869E-002
   GDM::        grad.step =   -2.58239720228540     
   ------- Leaving GDM -- hopefully with a step in the right direction! --------
 
    6    -419.8789953746      1.75E+00  Gap = 0.00 eV  Descent step
 
   ------------------- Entering Geometric Direct Minimization ------------------
   GDM::trust : actual energy change is        -2.53669089868941     
   GDM::trust : predicted energy change was   -0.191623045758640     
   GDM::trust : updated trust radius is        0.330000000000000     
   GDM::search:  On step            1 .  The current bracket is:
       left   : x =  0.0000E+00, e =      -419.8789953746, g = -0.9608E+01
       current: x =  0.2688E+00, e =      -422.4156862733, g = -0.9213E+01
       right  : x =  0.1000E+04, e =      1000.0000000000, g =  0.1000E+04
       next   : x =  0.2688E+01
   GDM::      : max rotation in step is       -0.826435988790387     
   ------- Leaving GDM -- hopefully with a step in the right direction! --------
 
    7    -422.4156862733      1.16E+00  Gap = 0.00 eV  Line search: understep
 
   ------------------- Entering Geometric Direct Minimization ------------------
   GDM::trust : actual energy change is        -13.4752184119007     
   GDM::trust : predicted energy change was   -0.191623045758640     
   GDM::trust : updated trust radius is        0.330000000000000     
   GDM:         diagonal hessian shift is      0.000000000000000E+000
   GDM::PreWSS: input subspace size is                  6
   GDM::PreWSS: working subspace size set to            6
   GDM::PrEWSS: # of linearly dependent vectors =            0
   GDM::PrEWSS: Max dev from orthonormality =   1.067576582691743E-012
   GDM::BFGS:   lowest Hinv e-value    0.462202611222463     
   GDM::BFGS:   highest Hinv e-value    1062.04741129641     
   GDM::      : max scaling in EWCs is          1.41421356237309     
   GDM::      : max rotation in step is        0.115122987394572     
   GDM::        grad.step =   -1.50373678893322     
   ------- Leaving GDM -- hopefully with a step in the right direction! --------
 
    8    -433.3542137865      1.60E+00  Gap = 0.00 eV  Descent step
 
   ------------------- Entering Geometric Direct Minimization ------------------
   GDM::trust : actual energy change is        -1.49139132406674     
   GDM::trust : predicted energy change was   -0.184913401862911     
   GDM::trust : updated trust radius is        0.330000000000000     
   GDM:         diagonal hessian shift is      0.000000000000000E+000
   GDM::PreWSS: input subspace size is                  7
   GDM::PreWSS: working subspace size set to            7
   GDM::PrEWSS: # of linearly dependent vectors =            0
   GDM::PrEWSS: Max dev from orthonormality =   2.084971084670428E-012
   GDM::BFGS:   lowest Hinv e-value    0.277785569154590     
   GDM::BFGS:   highest Hinv e-value    1084.77033017673     
   GDM::      : max scaling in EWCs is          1.41421356237309     
   GDM::      : max rotation in step is        0.195647065740721     
   GDM::        grad.step =   -1.77302848893904     
   ------- Leaving GDM -- hopefully with a step in the right direction! --------
 
    9    -434.8456051106      2.25E+00  Gap = 0.00 eV  Descent step
 
   ------------------- Entering Geometric Direct Minimization ------------------
   GDM::trust : actual energy change is        -1.71573624728296     
   GDM::trust : predicted energy change was   -0.124822067299928     
   GDM::trust : updated trust radius is        0.330000000000000     
   GDM:         diagonal hessian shift is      0.000000000000000E+000
   GDM::PreWSS: input subspace size is                  8
   GDM::PreWSS: working subspace size set to            8
   GDM::PrEWSS: # of linearly dependent vectors =            0
   GDM::PrEWSS: Max dev from orthonormality =   4.012415399934355E-012
   GDM::BFGS:   lowest Hinv e-value    0.347986655357908     
   GDM::BFGS:   highest Hinv e-value    919.028879426588     
   GDM::      : max scaling in EWCs is          1.41421356237309     
   GDM::      : max rotation in step is       -0.136917334342367     
   GDM::        grad.step =   -1.29326638028645     
   ------- Leaving GDM -- hopefully with a step in the right direction! --------
 
   10    -436.5613413579      1.44E+00  Gap = 0.00 eV  Descent step
 
   ------------------- Entering Geometric Direct Minimization ------------------
   GDM::trust : actual energy change is        -1.24926397979988     
   GDM::trust : predicted energy change was   -0.139446042286735     
   GDM::trust : updated trust radius is        0.330000000000000     
   GDM:         diagonal hessian shift is      0.000000000000000E+000
   GDM::PreWSS: input subspace size is                  9
   GDM::PreWSS: working subspace size set to            9
   GDM::PrEWSS: # of linearly dependent vectors =            0
   GDM::PrEWSS: Max dev from orthonormality =   2.912892149709023E-012
   GDM::BFGS:   lowest Hinv e-value    0.294837528155801     
   GDM::BFGS:   highest Hinv e-value    867.272321501101     
   GDM::      : max scaling in EWCs is          1.41421356237309     
   GDM::      : max rotation in step is       -0.230943448666175     
   GDM::        grad.step =   -1.21683129925932     
   ------- Leaving GDM -- hopefully with a step in the right direction! --------
 
   11    -437.8106053377      1.82E+00  Gap = 0.00 eV  Descent step
 
   ------------------- Entering Geometric Direct Minimization ------------------
   GDM::trust : actual energy change is        -1.16071730283767     
   GDM::trust : predicted energy change was   -0.134445870976998     
   GDM::trust : updated trust radius is        0.330000000000000     
   GDM:         diagonal hessian shift is      0.000000000000000E+000
   GDM::PreWSS: input subspace size is                 10
   GDM::PreWSS: working subspace size set to           10
   GDM::PrEWSS: # of linearly dependent vectors =            0
   GDM::PrEWSS: Max dev from orthonormality =   3.668857578853491E-011
   GDM::BFGS:   lowest Hinv e-value    0.303979531914843     
   GDM::BFGS:   highest Hinv e-value    848.019882695883     
   GDM::      : max scaling in EWCs is          1.41421356237309     
   GDM::      : max rotation in step is       -0.107400413158868     
   GDM::        grad.step =  -0.876597422743503     
   ------- Leaving GDM -- hopefully with a step in the right direction! --------
 
   12    -438.9713226405      9.72E-01  Gap = 0.00 eV  Descent step
 
   ------------------- Entering Geometric Direct Minimization ------------------
   GDM::trust : actual energy change is       -0.823289822760614     
   GDM::trust : predicted energy change was   -0.155700361230744     
   GDM::trust : updated trust radius is        0.330000000000000     
   GDM:         diagonal hessian shift is      0.000000000000000E+000
   GDM::PreWSS: input subspace size is                 11
   GDM::PreWSS: working subspace size set to           11
   GDM::PrEWSS: # of linearly dependent vectors =            0
   GDM::PrEWSS: Max dev from orthonormality =   1.619939252184288E-011
   GDM::BFGS:   lowest Hinv e-value    0.329413877801331     
   GDM::BFGS:   highest Hinv e-value    850.085306747941     
   GDM::      : max scaling in EWCs is          2.82842712474619     
   GDM::      : max rotation in step is       -0.134895073441514     
   GDM::        grad.step =  -0.781087212159851     
   ------- Leaving GDM -- hopefully with a step in the right direction! --------
 
   13    -439.7946124633      6.41E-01  Gap = 0.00 eV  Descent step
 
   ------------------- Entering Geometric Direct Minimization ------------------
   GDM::trust : actual energy change is       -0.750459190471020     
   GDM::trust : predicted energy change was   -0.140712045432831     
   GDM::trust : updated trust radius is        0.330000000000000     
   GDM:         diagonal hessian shift is      0.000000000000000E+000
   GDM::PreWSS: input subspace size is                 12
   GDM::PreWSS: working subspace size set to           12
   GDM::PrEWSS: # of linearly dependent vectors =            0
   GDM::PrEWSS: Max dev from orthonormality =   4.753777232968659E-011
   GDM::BFGS:   lowest Hinv e-value    0.214093240565619     
   GDM::BFGS:   highest Hinv e-value    860.299582589341     
   GDM::      : max scaling in EWCs is          2.82842712474619     
   GDM::      : max rotation in step is       -0.242561065624085     
   GDM::        grad.step =  -0.803095634610420     
   ------- Leaving GDM -- hopefully with a step in the right direction! --------
 
   14    -440.5450716538      6.48E-01  Gap = 0.00 eV  Descent step
 
   ------------------- Entering Geometric Direct Minimization ------------------
   GDM::trust : actual energy change is       -0.727860615374823     
   GDM::trust : predicted energy change was   -0.139083150939430     
   GDM::trust : updated trust radius is        0.330000000000000     
   GDM:         diagonal hessian shift is      0.000000000000000E+000
   GDM::PreWSS: input subspace size is                 13
   GDM::PreWSS: working subspace size set to           13
   GDM::PrEWSS: # of linearly dependent vectors =            0
   GDM::PrEWSS: Max dev from orthonormality =   2.038372075297001E-011
   GDM::BFGS:   lowest Hinv e-value    0.260689905856866     
   GDM::BFGS:   highest Hinv e-value    874.424138399168     
   GDM::      : max scaling in EWCs is          2.82842712474619     
   GDM::      : max rotation in step is       -0.142356854326932     
   GDM::        grad.step =  -0.641621549385153     
   ------- Leaving GDM -- hopefully with a step in the right direction! --------
 
   15    -441.2729322691      4.31E-01  Gap = 0.00 eV  Descent step
 
   ------------------- Entering Geometric Direct Minimization ------------------
   GDM::trust : actual energy change is       -0.575647851084057     
   GDM::trust : predicted energy change was   -0.158685950440267     
   GDM::trust : updated trust radius is        0.330000000000000     
   GDM:         diagonal hessian shift is      0.000000000000000E+000
   GDM::PreWSS: input subspace size is                 14
   GDM::PreWSS: working subspace size set to           14
   GDM::PrEWSS: # of linearly dependent vectors =            0
   GDM::PrEWSS: Max dev from orthonormality =   3.254104971595062E-011
   GDM::BFGS:   lowest Hinv e-value    0.238133998418727     
   GDM::BFGS:   highest Hinv e-value    918.408533446001     
   GDM::      : max scaling in EWCs is          2.82842712474619     
   GDM::      : max rotation in step is        0.288863371477922     
   GDM::        grad.step =  -0.630704522142556     
   ------- Leaving GDM -- hopefully with a step in the right direction! --------
 
   16    -441.8485801202      5.91E-01  Gap = 0.00 eV  Descent step
 
   ------------------- Entering Geometric Direct Minimization ------------------
   GDM::trust : actual energy change is       -0.530647986379847     
   GDM::trust : predicted energy change was   -0.153502946675637     
   GDM::trust : updated trust radius is        0.330000000000000     
   GDM:         diagonal hessian shift is      0.000000000000000E+000
   GDM::PreWSS: input subspace size is                 15
   GDM::PreWSS: working subspace size set to           15
   GDM::PrEWSS: # of linearly dependent vectors =            0
   GDM::PrEWSS: Max dev from orthonormality =   5.130084551607794E-011
   GDM::BFGS:   lowest Hinv e-value    0.223324437705685     
   GDM::BFGS:   highest Hinv e-value    962.087936588899     
   GDM::      : max scaling in EWCs is          2.82842712474619     
   GDM::      : max rotation in step is        0.283356251667110     
   GDM::        grad.step =  -0.563921110974854     
   ------- Leaving GDM -- hopefully with a step in the right direction! --------
 
   17    -442.3792281066      5.19E-01  Gap = 0.00 eV  Descent step
 
   ------------------- Entering Geometric Direct Minimization ------------------
   GDM::trust : actual energy change is       -0.443243479152898     
   GDM::trust : predicted energy change was   -0.169792797426032     
   GDM::trust : updated trust radius is        0.330000000000000     
   GDM:         diagonal hessian shift is      0.000000000000000E+000
   GDM::PreWSS: input subspace size is                 16
   GDM::PreWSS: working subspace size set to           16
   GDM::PrEWSS: # of linearly dependent vectors =            0
   GDM::PrEWSS: Max dev from orthonormality =   7.656321410198785E-011
   GDM::BFGS:   lowest Hinv e-value    0.176900541686033     
   GDM::BFGS:   highest Hinv e-value    1027.32099838884     
   GDM::      : max scaling in EWCs is          2.82842712474619     
   GDM::      : max rotation in step is       -0.185279466143886     
   GDM::        grad.step =  -0.455866724690713     
   ------- Leaving GDM -- hopefully with a step in the right direction! --------
 
   18    -442.8224715858      5.75E-01  Gap = 0.00 eV  Descent step
 
   ------------------- Entering Geometric Direct Minimization ------------------
   GDM::trust : actual energy change is       -0.452742118362949     
   GDM::trust : predicted energy change was   -0.185208287096838     
   GDM::trust : updated trust radius is        0.330000000000000     
   GDM:         diagonal hessian shift is      0.000000000000000E+000
   GDM::PreWSS: input subspace size is                 17
   GDM::PreWSS: working subspace size set to           17
   GDM::PrEWSS: # of linearly dependent vectors =            0
   GDM::PrEWSS: Max dev from orthonormality =   5.975962086290920E-011
   GDM::BFGS:   lowest Hinv e-value    3.413127793626555E-002
   GDM::BFGS:   highest Hinv e-value    1038.51370846333     
   GDM::      : max scaling in EWCs is          2.82842712474619     
   GDM::      : max rotation in step is       -0.623728260563380     
   GDM::        grad.step =  -0.887115332278519     
   ------- Leaving GDM -- hopefully with a step in the right direction! --------
 
   19    -443.2752137041      1.80E+00  Gap = 0.00 eV  Descent step
 
   ------------------- Entering Geometric Direct Minimization ------------------
   GDM::trust : actual energy change is       -0.585431334797647     
   GDM::trust : predicted energy change was   -0.940090026074302     
   GDM::trust : updated trust radius is        0.330000000000000     
   GDM:         diagonal hessian shift is      0.000000000000000E+000
   GDM::PreWSS: input subspace size is                 18
   GDM::PreWSS: working subspace size set to           18
   GDM::PrEWSS: # of linearly dependent vectors =            0
   GDM::PrEWSS: Max dev from orthonormality =   2.118621250657426E-011
   GDM::BFGS:   lowest Hinv e-value    0.154785407773007     
   GDM::BFGS:   highest Hinv e-value    1142.63595664329     
   GDM::      : max scaling in EWCs is          2.82842712474619     
   GDM::      : max rotation in step is       -0.400843890437055     
   GDM::        grad.step =  -0.604499256250631     
   ------- Leaving GDM -- hopefully with a step in the right direction! --------
 
   20    -443.8606450389      7.87E-01  Gap = 0.00 eV  Descent step
 
   ------------------- Entering Geometric Direct Minimization ------------------
   GDM::trust : actual energy change is       -0.514746286535626     
   GDM::trust : predicted energy change was   -0.193641368066327     
   GDM::trust : updated trust radius is        0.330000000000000     
   GDM:         diagonal hessian shift is      0.000000000000000E+000
   GDM::PreWSS: input subspace size is                 19
   GDM::PreWSS: working subspace size set to           18
   GDM::PrEWSS: # of linearly dependent vectors =            0
   GDM::PrEWSS: Max dev from orthonormality =   4.136253839437387E-011
   GDM::BFGS:   lowest Hinv e-value    0.182298635447713     
   GDM::BFGS:   highest Hinv e-value    35.4411828124420     
   GDM::      : max scaling in EWCs is          2.82842712474619     
   GDM::      : max rotation in step is       -0.306105024241128     
   GDM::        grad.step =  -0.304442104607082     
   ------- Leaving GDM -- hopefully with a step in the right direction! --------
 
   21    -444.3753913254      4.86E-01  Gap = 0.00 eV  Descent step
 
   ------------------- Entering Geometric Direct Minimization ------------------
   GDM::trust : actual energy change is       -0.224108177018365     
   GDM::trust : predicted energy change was   -0.146779669902191     
   GDM::trust : updated trust radius is        0.330000000000000     
   GDM:         diagonal hessian shift is      0.000000000000000E+000
   GDM::PreWSS: input subspace size is                 19
   GDM::PreWSS: working subspace size set to           18
   GDM::PrEWSS: # of linearly dependent vectors =            0
   GDM::PrEWSS: Max dev from orthonormality =   2.864498221955003E-011
   GDM::BFGS:   lowest Hinv e-value    0.174044301631641     
   GDM::BFGS:   highest Hinv e-value    38.9480786734816     
   GDM::      : max scaling in EWCs is          2.82842712474619     
   GDM::      : max rotation in step is       -0.119247857586827     
   GDM::        grad.step =  -0.127968517616503     
   ------- Leaving GDM -- hopefully with a step in the right direction! --------
 
   22    -444.5994995025      1.33E-01  Gap = 0.00 eV  Descent step
 
   ------------------- Entering Geometric Direct Minimization ------------------
   GDM::trust : actual energy change is       -6.540357635304872E-002
   GDM::trust : predicted energy change was   -0.149384840736380     
   GDM::trust : updated trust radius is        0.330000000000000     
   GDM:         diagonal hessian shift is      0.000000000000000E+000
   GDM::PreWSS: input subspace size is                 19
   GDM::PreWSS: working subspace size set to           18
   GDM::PrEWSS: # of linearly dependent vectors =            0
   GDM::PrEWSS: Max dev from orthonormality =   1.276214550705035E-011
   GDM::BFGS:   lowest Hinv e-value    0.156351806822235     
   GDM::BFGS:   highest Hinv e-value    29.2587001440728     
   GDM::trust : dogleg step length is          0.330000000000000     
   GDM::      : max scaling in EWCs is          2.82842712474619     
   GDM::      : max rotation in step is       -0.227017056694420     
   GDM::        grad.step =  -5.494430211268417E-002
   ------- Leaving GDM -- hopefully with a step in the right direction! --------
 
   23    -444.6649030788      6.97E-02  Gap = 0.00 eV  Dog-leg BFGS step
 
   ------------------- Entering Geometric Direct Minimization ------------------
   GDM::trust : actual energy change is        5.396826623547213E-002
   GDM::trust : predicted energy change was   -0.146238747455039     
   GDM::trust : updated trust radius is        0.108900000000000     
   GDM::search:  On step            1 .  The current bracket is:
       left   : x =  0.0000E+00, e =      -444.6649030788, g = -0.1330E+00
       current: x =  0.4131E+00, e =      -444.6109348126, g =  0.3868E+00
       right  : x =  0.1000E+04, e =      1000.0000000000, g =  0.1000E+04
       next   : x =  0.1042E+00
   GDM::      : max rotation in step is       -5.726287579537069E-002
   ------- Leaving GDM -- hopefully with a step in the right direction! --------
 
   24    -444.6109348126      2.43E-02  Gap = 0.00 eV  Line search: overstep
 
   ------------------- Entering Geometric Direct Minimization ------------------
   GDM::trust : actual energy change is       -6.874320451800031E-003
   GDM::trust : predicted energy change was   -0.146238747455039     
   GDM::trust : updated trust radius is        0.108900000000000     
   GDM:         diagonal hessian shift is      0.000000000000000E+000
   GDM::PreWSS: input subspace size is                 19
   GDM::PreWSS: working subspace size set to           18
   GDM::PrEWSS: # of linearly dependent vectors =            0
   GDM::PrEWSS: Max dev from orthonormality =   1.736535915064508E-011
   GDM::BFGS:   lowest Hinv e-value    0.312830364981534     
   GDM::BFGS:   highest Hinv e-value    15.1722152153707     
   GDM::trust : dogleg step length is          0.108900000000000     
   GDM::      : max scaling in EWCs is          2.82842712474619     
   GDM::      : max rotation in step is        3.626257498914451E-002
   GDM::        grad.step =  -9.728692061108563E-003
   ------- Leaving GDM -- hopefully with a step in the right direction! --------
 
   25    -444.6717773993      3.58E-02  Gap = 0.00 eV  Dog-leg BFGS step
 
   ------------------- Entering Geometric Direct Minimization ------------------
   GDM::trust : actual energy change is       -1.127777456702006E-003
   GDM::trust : predicted energy change was   -1.270499907611125E-002
   GDM::trust : updated trust radius is        0.108900000000000     
   GDM:         diagonal hessian shift is      0.000000000000000E+000
   GDM::PreWSS: input subspace size is                 19
   GDM::PreWSS: working subspace size set to           18
   GDM::PrEWSS: # of linearly dependent vectors =            0
   GDM::PrEWSS: Max dev from orthonormality =   2.611106122984985E-011
   GDM::BFGS:   lowest Hinv e-value    0.278890898422467     
   GDM::BFGS:   highest Hinv e-value    7.21481598297233     
   GDM::      : max scaling in EWCs is          2.82842712474619     
   GDM::      : max rotation in step is       -4.758156184969249E-002
   GDM::        grad.step =  -1.209461016870518E-002
   ------- Leaving GDM -- hopefully with a step in the right direction! --------
 
   26    -444.6729051767      3.24E-02  Gap = 0.00 eV  Descent step
 
   ------------------- Entering Geometric Direct Minimization ------------------
   GDM::trust : actual energy change is        5.767608589053452E-003
   GDM::trust : predicted energy change was   -2.935208305154712E-002
   GDM::trust : updated trust radius is        0.108900000000000     
   GDM::search:  On step            1 .  The current bracket is:
       left   : x =  0.0000E+00, e =      -444.6729051767, g = -0.8890E-01
       current: x =  0.1360E+00, e =      -444.6671375681, g =  0.1690E+00
       right  : x =  0.1000E+04, e =      1000.0000000000, g =  0.1000E+04
       next   : x =  0.4606E-01
   GDM::      : max rotation in step is       -1.610887341585713E-002
   ------- Leaving GDM -- hopefully with a step in the right direction! --------
 
   27    -444.6671375681      7.49E-03  Gap = 0.00 eV  Line search: overstep
 
   ------------------- Entering Geometric Direct Minimization ------------------
   GDM::trust : actual energy change is       -2.000888913812560E-003
   GDM::trust : predicted energy change was   -2.935208305154712E-002
   GDM::trust : updated trust radius is        0.108900000000000     
   GDM:         diagonal hessian shift is      0.000000000000000E+000
   GDM::PreWSS: input subspace size is                 19
   GDM::PreWSS: working subspace size set to           18
   GDM::PrEWSS: # of linearly dependent vectors =            0
   GDM::PrEWSS: Max dev from orthonormality =   2.044104469023367E-011
   GDM::BFGS:   lowest Hinv e-value    0.258745481930735     
   GDM::BFGS:   highest Hinv e-value    6.94930326970507     
   GDM::      : max scaling in EWCs is          2.82842712474619     
   GDM::      : max rotation in step is       -4.078209046573493E-002
   GDM::        grad.step =  -1.141536325066413E-003
   ------- Leaving GDM -- hopefully with a step in the right direction! --------
 
   28    -444.6749060656      1.88E-02  Gap = 0.00 eV  Normal BFGS step
 
   ------------------- Entering Geometric Direct Minimization ------------------
   GDM::trust : actual energy change is        4.674299246971714E-004
   GDM::trust : predicted energy change was   -1.712304487599621E-003
   GDM::trust : updated trust radius is        0.108900000000000     
   GDM::search:  On step            1 .  The current bracket is:
       left   : x =  0.0000E+00, e =      -444.6749060656, g = -0.1439E-01
       current: x =  0.7932E-01, e =      -444.6744386357, g =  0.2630E-01
       right  : x =  0.1000E+04, e =      1000.0000000000, g =  0.1000E+04
       next   : x =  0.2814E-01
   GDM::      : max rotation in step is       -1.446712685415918E-002
   ------- Leaving GDM -- hopefully with a step in the right direction! --------
 
   29    -444.6744386357      4.34E-03  Gap = 0.00 eV  Line search: overstep
 
   ------------------- Entering Geometric Direct Minimization ------------------
   GDM::trust : actual energy change is       -2.032607123965136E-004
   GDM::trust : predicted energy change was   -1.712304487599621E-003
   GDM::trust : updated trust radius is        0.108900000000000     
   GDM:         diagonal hessian shift is      0.000000000000000E+000
   GDM::PreWSS: input subspace size is                 19
   GDM::PreWSS: working subspace size set to           18
   GDM::PrEWSS: # of linearly dependent vectors =            1
   GDM::PrEWSS: Max dev from orthonormality =   3.605434006903607E-011
   GDM::BFGS:   lowest Hinv e-value    0.273927984987600     
   GDM::BFGS:   highest Hinv e-value    3.35990745338521     
   GDM::      : max scaling in EWCs is          2.82842712474619     
   GDM::      : max rotation in step is        9.356351581445559E-003
   GDM::        grad.step =  -7.426957095098749E-004
   ------- Leaving GDM -- hopefully with a step in the right direction! --------
 
   30    -444.6751093264      7.18E-03  Gap = 0.00 eV  Normal BFGS step
 
   ------------------- Entering Geometric Direct Minimization ------------------
   GDM::trust : actual energy change is        2.291104721052761E-005
   GDM::trust : predicted energy change was   -1.114043564264812E-003
   GDM::trust : updated trust radius is        0.108900000000000     
   GDM::search:  On step            1 .  The current bracket is:
       left   : x =  0.0000E+00, e =      -444.6751093264, g = -0.2286E-01
       current: x =  0.3249E-01, e =      -444.6750864153, g =  0.2425E-01
       right  : x =  0.1000E+04, e =      1000.0000000000, g =  0.1000E+04
       next   : x =  0.1576E-01
   GDM::      : max rotation in step is        4.538179760829407E-003
   ------- Leaving GDM -- hopefully with a step in the right direction! --------
 
   31    -444.6750864153      2.62E-03  Gap = 0.00 eV  Line search: overstep
 
   ------------------- Entering Geometric Direct Minimization ------------------
   GDM::trust : actual energy change is       -1.800118354253755E-004
   GDM::trust : predicted energy change was   -1.114043564264812E-003
   GDM::trust : updated trust radius is        0.108900000000000     
   GDM:         diagonal hessian shift is      0.000000000000000E+000
   GDM::PreWSS: input subspace size is                 19
   GDM::PreWSS: working subspace size set to           18
   GDM::PrEWSS: # of linearly dependent vectors =            0
   GDM::PrEWSS: Max dev from orthonormality =   6.456425671874655E-011
   GDM::BFGS:   lowest Hinv e-value    0.259738901176464     
   GDM::BFGS:   highest Hinv e-value    3.36831493095665     
   GDM::      : max scaling in EWCs is          2.82842712474619     
   GDM::      : max rotation in step is       -1.110259535906304E-003
   GDM::        grad.step =  -7.583045055149800E-006
   ------- Leaving GDM -- hopefully with a step in the right direction! --------
 
   32    -444.6752893382      6.52E-04  Gap = 0.00 eV  Normal BFGS step
 
   ------------------- Entering Geometric Direct Minimization ------------------
   GDM::trust : actual energy change is       -3.594377005811111E-006
   GDM::trust : predicted energy change was   -1.137456758272470E-005
   GDM::trust : updated trust radius is        0.330000000000000     
   GDM:         diagonal hessian shift is      0.000000000000000E+000
   GDM::PreWSS: input subspace size is                 19
   GDM::PreWSS: working subspace size set to           18
   GDM::PrEWSS: # of linearly dependent vectors =            0
   GDM::PrEWSS: Max dev from orthonormality =   1.670869276271247E-010
   GDM::BFGS:   lowest Hinv e-value    0.259727431267928     
   GDM::BFGS:   highest Hinv e-value    3.04767995066900     
   GDM::      : max scaling in EWCs is          2.82842712474619     
   GDM::      : max rotation in step is        1.024780319375042E-003
   GDM::        grad.step =  -3.538476379612686E-006
   ------- Leaving GDM -- hopefully with a step in the right direction! --------
 
   33    -444.6752929326      4.44E-04  Gap = 0.00 eV  Normal BFGS step
 
   ------------------- Entering Geometric Direct Minimization ------------------
   GDM::trust : actual energy change is       -3.782197950386035E-007
   GDM::trust : predicted energy change was   -5.307714569419028E-006
   GDM::trust : updated trust radius is        0.330000000000000     
   GDM:         diagonal hessian shift is      0.000000000000000E+000
   GDM::PreWSS: input subspace size is                 19
   GDM::PreWSS: working subspace size set to           18
   GDM::PrEWSS: # of linearly dependent vectors =            1
   GDM::PrEWSS: Max dev from orthonormality =   3.780702140243619E-011
   GDM::BFGS:   lowest Hinv e-value    0.260743998035731     
   GDM::BFGS:   highest Hinv e-value    2.82736298131351     
   GDM::      : max scaling in EWCs is          2.82842712474619     
   GDM::      : max rotation in step is        6.168022141247294E-004
   GDM::        grad.step =  -2.115655587251265E-006
   ------- Leaving GDM -- hopefully with a step in the right direction! --------
 
   34    -444.6752933108      6.12E-04  Gap = 0.00 eV  Normal BFGS step
 
   ------------------- Entering Geometric Direct Minimization ------------------
   GDM::trust : actual energy change is       -8.259245305453078E-007
   GDM::trust : predicted energy change was   -3.173483380876897E-006
   GDM::trust : updated trust radius is        0.330000000000000     
   GDM:         diagonal hessian shift is      0.000000000000000E+000
   GDM::PreWSS: input subspace size is                 19
   GDM::PreWSS: working subspace size set to           18
   GDM::PrEWSS: # of linearly dependent vectors =            0
   GDM::PrEWSS: Max dev from orthonormality =   7.678854080372943E-011
   GDM::BFGS:   lowest Hinv e-value    0.261403172860510     
   GDM::BFGS:   highest Hinv e-value    2.48119891791851     
   GDM::      : max scaling in EWCs is          2.82842712474619     
   GDM::      : max rotation in step is       -1.845191777474123E-004
   GDM::        grad.step =  -2.727424427948821E-007
   ------- Leaving GDM -- hopefully with a step in the right direction! --------
 
   35    -444.6752941367      1.72E-04  Gap = 0.00 eV  Normal BFGS step
 
   ------------------- Entering Geometric Direct Minimization ------------------
   GDM::trust : actual energy change is       -8.809576002022368E-008
   GDM::trust : predicted energy change was   -4.091136641923232E-007
   GDM::trust : updated trust radius is        0.330000000000000     
   GDM:         diagonal hessian shift is      0.000000000000000E+000
   GDM::PreWSS: input subspace size is                 19
   GDM::PreWSS: working subspace size set to           18
   GDM::PrEWSS: # of linearly dependent vectors =            0
   GDM::PrEWSS: Max dev from orthonormality =   2.905221202498254E-011
   GDM::BFGS:   lowest Hinv e-value    0.261403869299020     
   GDM::BFGS:   highest Hinv e-value    2.46286707972929     
   GDM::      : max scaling in EWCs is          2.82842712474619     
   GDM::      : max rotation in step is       -6.278590565462622E-005
   GDM::        grad.step =  -4.825884727249252E-008
   ------- Leaving GDM -- hopefully with a step in the right direction! --------
 
   36    -444.6752942248      5.28E-05  Gap = 0.00 eV  Normal BFGS step
 
   ------------------- Entering Geometric Direct Minimization ------------------
   GDM::trust : actual energy change is       -2.054792958006146E-008
   GDM::trust : predicted energy change was   -7.238827090873881E-008
   GDM::trust : updated trust radius is        0.330000000000000     
   GDM:         diagonal hessian shift is      0.000000000000000E+000
   GDM::PreWSS: input subspace size is                 19
   GDM::PreWSS: working subspace size set to           18
   GDM::PrEWSS: # of linearly dependent vectors =            0
   GDM::PrEWSS: Max dev from orthonormality =   2.491600155363205E-011
   GDM::BFGS:   lowest Hinv e-value    0.260601731546960     
   GDM::BFGS:   highest Hinv e-value    2.83831107429864     
   GDM::      : max scaling in EWCs is          2.82842712474619     
   GDM::      : max rotation in step is        3.022627788814656E-005
   GDM::        grad.step =  -4.807037595096093E-009
   ------- Leaving GDM -- hopefully with a step in the right direction! --------
 
   37    -444.6752942454      1.72E-05  Gap = 0.00 eV  Normal BFGS step
 
   ------------------- Entering Geometric Direct Minimization ------------------
   GDM::trust : actual energy change is       -8.637925930088386E-010
   GDM::trust : predicted energy change was   -7.210556392644138E-009
   GDM::trust : updated trust radius is        0.330000000000000     
   GDM:         diagonal hessian shift is      0.000000000000000E+000
   GDM::PreWSS: input subspace size is                 19
   GDM::PreWSS: working subspace size set to           18
   GDM::PrEWSS: # of linearly dependent vectors =            0
   GDM::PrEWSS: Max dev from orthonormality =   2.566317991448130E-011
   GDM::BFGS:   lowest Hinv e-value    0.260846752585627     
   GDM::BFGS:   highest Hinv e-value    1.93615203235974     
   GDM::      : max scaling in EWCs is          2.82842712474619     
   GDM::      : max rotation in step is       -2.359468275182067E-005
   GDM::        grad.step =  -1.837518968940661E-009
   ------- Leaving GDM -- hopefully with a step in the right direction! --------
 
   38    -444.6752942462      1.94E-05  Gap = 0.00 eV  Normal BFGS step
 
   ------------------- Entering Geometric Direct Minimization ------------------
   GDM::trust : actual energy change is       -8.155893738148734E-010
   GDM::trust : predicted energy change was   -2.756278453410992E-009
   GDM::trust : updated trust radius is        0.330000000000000     
   GDM:         diagonal hessian shift is      0.000000000000000E+000
   GDM::PreWSS: input subspace size is                 19
   GDM::PreWSS: working subspace size set to           15
   GDM::PrEWSS: # of linearly dependent vectors =            0
   GDM::PrEWSS: Max dev from orthonormality =   1.436063767901175E-011
   GDM::BFGS:   lowest Hinv e-value    0.260235793885421     
   GDM::BFGS:   highest Hinv e-value    1.93868242120563     
   GDM::      : max scaling in EWCs is          2.82842712474619     
   GDM::      : max rotation in step is        4.621003669003293E-006
   GDM::        grad.step =  -8.642675615398180E-011
   ------- Leaving GDM -- hopefully with a step in the right direction! --------
 
   39    -444.6752942470      3.79E-06  Gap = 0.00 eV  Normal BFGS step
 
   ------------------- Entering Geometric Direct Minimization ------------------
   GDM::trust : actual energy change is       -3.831246431218460E-011
   GDM::trust : predicted energy change was   -1.296401342309727E-010
   GDM::trust : updated trust radius is        0.330000000000000     
   GDM:         diagonal hessian shift is      0.000000000000000E+000
   GDM::PreWSS: input subspace size is                 16
   GDM::PreWSS: working subspace size set to           13
   GDM::PrEWSS: # of linearly dependent vectors =            0
   GDM::PrEWSS: Max dev from orthonormality =   1.795397164272572E-011
   GDM::BFGS:   lowest Hinv e-value    0.260529558366519     
   GDM::BFGS:   highest Hinv e-value    1.98270391572014     
   GDM::      : max scaling in EWCs is          2.82842712474619     
   GDM::      : max rotation in step is       -5.889088425057195E-007
   GDM::        grad.step =  -2.550901742996323E-012
   ------- Leaving GDM -- hopefully with a step in the right direction! --------
 
   40    -444.6752942471      3.63E-07  Gap = 0.00 eV  Normal BFGS step
 
   ------------------- Entering Geometric Direct Minimization ------------------
   GDM::trust : actual energy change is       -1.648459146963432E-012
   GDM::trust : predicted energy change was   -3.826352614494485E-012
   GDM::trust : updated trust radius is        0.330000000000000     
   GDM:         diagonal hessian shift is      0.000000000000000E+000
   GDM::PreWSS: input subspace size is                 14
   GDM::PreWSS: working subspace size set to           12
   GDM::PrEWSS: # of linearly dependent vectors =            0
   GDM::PrEWSS: Max dev from orthonormality =   5.354577892191514E-012
   GDM::BFGS:   lowest Hinv e-value    0.417659826296862     
   GDM::BFGS:   highest Hinv e-value    2.09569999015578     
   GDM::      : max scaling in EWCs is          2.82842712474619     
   GDM::      : max rotation in step is        2.462402651134227E-007
   GDM::        grad.step =  -1.129089602988015E-013
   ------- Leaving GDM -- hopefully with a step in the right direction! --------
 
   41    -444.6752942471      9.72E-08  Gap = 0.00 eV  Normal BFGS step
 
   ------------------- Entering Geometric Direct Minimization ------------------
   GDM::trust : actual energy change is        5.115907697472721E-013
   GDM::trust : predicted energy change was   -1.693634404482023E-013
   GDM::trust : updated trust radius is        0.108900000000000     
   GDM::WARNING energy changes are now smaller than effective accuracy.
   GDM::        calculation will continue, but THRESH should be increased
   GDM::        or SCF_CONVERGENCE decreased.
   GDM::        effective_thresh =   1.670869276271247E-010
   GDM:         diagonal hessian shift is      0.000000000000000E+000
   GDM::PreWSS: input subspace size is                 13
   GDM::PreWSS: working subspace size set to           11
   GDM::PrEWSS: # of linearly dependent vectors =            0
   GDM::PrEWSS: Max dev from orthonormality =   1.090488116473054E-011
   GDM::BFGS:   lowest Hinv e-value    0.536689686210220     
   GDM::BFGS:   highest Hinv e-value    1.86034223594310     
   GDM::      : max scaling in EWCs is          2.82842712474619     
   GDM::      : max rotation in step is        5.586542031768396E-007
   GDM::        grad.step =  -3.866716680530233E-014
   ------- Leaving GDM -- hopefully with a step in the right direction! --------
 
   42    -444.6752942471      1.57E-07  Gap = 0.00 eV  Normal BFGS step
 
   ------------------- Entering Geometric Direct Minimization ------------------
   GDM::trust : actual energy change is       -1.705302565824240E-013
   GDM::trust : predicted energy change was   -5.800075020795345E-014
   GDM::trust : updated trust radius is        0.330000000000000     
   GDM::search:  On step            1 .  The current bracket is:
       left   : x =  0.0000E+00, e =      -444.6752942471, g = -0.6654E-07
       current: x =  0.5811E-06, e =      -444.6752942471, g = -0.6308E-07
       right  : x =  0.1000E+04, e =      1000.0000000000, g =  0.1000E+04
       next   : x =  0.5811E-05
   GDM::      : max rotation in step is        5.586542031768396E-006
   ------- Leaving GDM -- hopefully with a step in the right direction! --------
 
   43    -444.6752942471      3.75E-08  Gap = 0.00 eV  Line search: understep
 
   ------------------- Entering Geometric Direct Minimization ------------------
   GDM::trust : actual energy change is       -8.526512829121202E-013
   GDM::trust : predicted energy change was   -5.800075020795345E-014
   GDM::trust : updated trust radius is        0.330000000000000     
   GDM:         diagonal hessian shift is      0.000000000000000E+000
   GDM::PreWSS: input subspace size is                 12
   GDM::PreWSS: working subspace size set to           12
   GDM::PrEWSS: # of linearly dependent vectors =            1
   GDM::PrEWSS: Max dev from orthonormality =   4.785642368498877E-012
   GDM::BFGS:   lowest Hinv e-value    1.916887375193867E-002
   GDM::BFGS:   highest Hinv e-value    1358.97529179813     
   GDM::      : max scaling in EWCs is          2.82842712474619     
   GDM::      : max rotation in step is        5.441001612246395E-004
   GDM::        grad.step =  -3.696097907463919E-011
   ------- Leaving GDM -- hopefully with a step in the right direction! --------
 
   44    -444.6752942471      1.51E-06  Gap = 0.00 eV  Normal BFGS step
 
   ------------------- Entering Geometric Direct Minimization ------------------
   GDM::trust : actual energy change is       -8.952838470577262E-010
   GDM::trust : predicted energy change was   -5.544146861195884E-011
   GDM::trust : updated trust radius is        0.330000000000000     
   GDM::search:  On step            1 .  The current bracket is:
       left   : x =  0.0000E+00, e =      -444.6752942471, g = -0.6555E-07
       current: x =  0.5639E-03, e =      -444.6752942480, g = -0.3108E-05
       right  : x =  0.1000E+04, e =      1000.0000000000, g =  0.1000E+04
       next   : x =  0.5639E-02
   GDM::      : max rotation in step is        5.441001612246395E-003
   ------- Leaving GDM -- hopefully with a step in the right direction! --------
 
   45    -444.6752942480      2.62E-05  Gap = 0.00 eV  Line search: understep
 
   ------------------- Entering Geometric Direct Minimization ------------------
   GDM::trust : actual energy change is       -8.468043688480975E-008
   GDM::trust : predicted energy change was   -5.544146861195884E-011
   GDM::trust : updated trust radius is        0.330000000000000     
   GDM::search:  On step            2 .  The current bracket is:
       left   : x =  0.5639E-03, e =      -444.6752942480, g = -0.3108E-05
       current: x =  0.5639E-02, e =      -444.6752943318, g = -0.2966E-04
       right  : x =  0.1000E+04, e =         0.0000000000, g =  0.0000E+00
       next   : x =  0.5131E-01
   GDM::      : max rotation in step is        4.951311467144219E-002
   ------- Leaving GDM -- hopefully with a step in the right direction! --------
 
   46    -444.6752943318      2.59E-04  Gap = 0.00 eV  Line search: understep
 
   ------------------- Entering Geometric Direct Minimization ------------------
   GDM::trust : actual energy change is       -5.722672710817278E-006
   GDM::trust : predicted energy change was   -5.544146861195884E-011
   GDM::trust : updated trust radius is        0.330000000000000     
   GDM::search:  On step            3 .  The current bracket is:
       left   : x =  0.5639E-02, e =      -444.6752943318, g = -0.2966E-04
       current: x =  0.5131E-01, e =      -444.6752999697, g = -0.1934E-03
       right  : x =  0.1000E+04, e =         0.0000000000, g =  0.0000E+00
       next   : x =  0.4624E+00
   GDM::      : max rotation in step is        0.446162132204204     
   ------- Leaving GDM -- hopefully with a step in the right direction! --------
 
   47    -444.6752999697      2.32E-03  Gap = 0.00 eV  Line search: understep
 
   ------------------- Entering Geometric Direct Minimization ------------------
   GDM::trust : actual energy change is        1.020405697204296E-003
   GDM::trust : predicted energy change was   -5.544146861195884E-011
   GDM::trust : updated trust radius is        0.108900000000000     
   GDM::search:  On step            4 .  The current bracket is:
       left   : x =  0.5131E-01, e =      -444.6752999697, g = -0.1934E-03
       current: x =  0.4624E+00, e =      -444.6742738414, g =  0.9042E-02
       right  : x =  0.1000E+04, e =         0.0000000000, g =  0.0000E+00
       next   : x =  0.9242E-01
   GDM::      : max rotation in step is        8.917801642471841E-002
   ------- Leaving GDM -- hopefully with a step in the right direction! --------
 
   48    -444.6742738414      1.79E-02  Gap = 0.00 eV  Line search: overstep
 
   ------------------- Entering Geometric Direct Minimization ------------------
   GDM::trust : actual energy change is       -1.439000470782048E-005
   GDM::trust : predicted energy change was   -5.544146861195884E-011
   GDM::trust : updated trust radius is        0.108900000000000     
   GDM::search:  On step            5 .  The current bracket is:
       left   : x =  0.5131E-01, e =      -444.6752999697, g = -0.1934E-03
       current: x =  0.9242E-01, e =      -444.6753086371, g = -0.2045E-03
       right  : x =  0.4624E+00, e =         0.0000000000, g =  0.0000E+00
       next   : x =  0.4254E+00
   GDM::      : max rotation in step is        0.410463720626256     
   ------- Leaving GDM -- hopefully with a step in the right direction! --------
 
   49    -444.6753086371      4.11E-03  Gap = 0.00 eV  Line search: understep
 
   ------------------- Entering Geometric Direct Minimization ------------------
   GDM::trust : actual energy change is        7.210191864146509E-004
   GDM::trust : predicted energy change was   -5.544146861195884E-011
   GDM::trust : updated trust radius is        3.593700000000000E-002
   GDM::search:  On step            6 .  The current bracket is:
       left   : x =  0.9242E-01, e =      -444.6753086371, g = -0.2045E-03
       current: x =  0.4254E+00, e =      -444.6745732279, g =  0.7181E-02
       right  : x =  0.4624E+00, e =         0.0000000000, g =  0.0000E+00
       next   : x =  0.1257E+00
   GDM::      : max rotation in step is        0.121306586844872     
   ------- Leaving GDM -- hopefully with a step in the right direction! --------
 
   50    -444.6745732279      1.67E-02  Gap = 0.00 eV  Line search: overstep
 
   ------------------- Entering Geometric Direct Minimization ------------------
   GDM::trust : actual energy change is       -1.977664152263969E-005
   GDM::trust : predicted energy change was   -5.544146861195884E-011
   GDM::trust : updated trust radius is        3.593700000000000E-002
   GDM:         diagonal hessian shift is      0.000000000000000E+000
   GDM::PreWSS: input subspace size is                 13
   GDM::PreWSS: working subspace size set to           13
   GDM::PrEWSS: # of linearly dependent vectors =            1
   GDM::PrEWSS: Max dev from orthonormality =   8.217607150307060E-012
   GDM::BFGS:   lowest Hinv e-value   -3.465578515968676E-003
   GDM::BFGS:   highest Hinv e-value    1140.79202076181     
   GDM::BFGS:   rebuilding Hinv to be positive definite
   GDM::      : max scaling in EWCs is          2.82842712474619     
   GDM::      : max rotation in step is        4.263890216233439E-002
   GDM::        grad.step =  -2.366588376428864E-003
   ------- Leaving GDM -- hopefully with a step in the right direction! --------
 
   51    -444.6753140237      2.76E-02  Gap = 0.00 eV  Descent step
 
   ------------------- Entering Geometric Direct Minimization ------------------
   GDM::trust : actual energy change is       -6.279775117263853E-004
   GDM::trust : predicted energy change was   -0.187610696888351     
   GDM::trust : updated trust radius is        0.330000000000000     
   GDM:         diagonal hessian shift is      0.000000000000000E+000
   GDM::PreWSS: input subspace size is                 14
   GDM::PreWSS: working subspace size set to           14
   GDM::PrEWSS: # of linearly dependent vectors =            1
   GDM::PrEWSS: Max dev from orthonormality =   1.000924343408371E-011
   GDM::BFGS:   lowest Hinv e-value    0.246550628435782     
   GDM::BFGS:   highest Hinv e-value    1445.80328564085     
   GDM::trust : dogleg step length is          0.330000000000000     
   GDM::      : max scaling in EWCs is          2.82842712474619     
   GDM::      : max rotation in step is        0.909679771529532     
   GDM::        grad.step =  -1.399134543000266E-002
   ------- Leaving GDM -- hopefully with a step in the right direction! --------
 
   52    -444.6759420012      4.11E-02  Gap = 0.00 eV  Dog-leg BFGS step
 
   ------------------- Entering Geometric Direct Minimization ------------------
   GDM::trust : actual energy change is       -2.536048394870249E-002
   GDM::trust : predicted energy change was   -2.253237669588088E-002
   GDM::trust : updated trust radius is        0.330000000000000     
   GDM:         diagonal hessian shift is      0.000000000000000E+000
   GDM::PreWSS: input subspace size is                 15
   GDM::PreWSS: working subspace size set to           15
   GDM::PrEWSS: # of linearly dependent vectors =            1
   GDM::PrEWSS: Max dev from orthonormality =   3.007048776648702E-011
   GDM::BFGS:   lowest Hinv e-value   -1.913946437700200E-002
   GDM::BFGS:   highest Hinv e-value    176682.047378118     
   GDM::BFGS:   rebuilding Hinv to be positive definite
   GDM::trust : dogleg step length is          0.330000000000000     
   GDM::      : max scaling in EWCs is          2.69669688659374     
   GDM::      : max rotation in step is        0.774297527614255     
   GDM::        grad.step =  -4.608295938930712E-002
   ------- Leaving GDM -- hopefully with a step in the right direction! --------
 
   53    -444.7013024852      6.42E-02  Gap = 0.00 eV  Dog-leg BFGS step
 
   ------------------- Entering Geometric Direct Minimization ------------------
   GDM::trust : actual energy change is        1.845336865073932E-003
   GDM::trust : predicted energy change was   -0.906344607063147     
   GDM::trust : updated trust radius is        0.108900000000000     
   GDM::search:  On step            1 .  The current bracket is:
       left   : x =  0.0000E+00, e =      -444.7013024852, g = -0.5729E-01
       current: x =  0.8044E+00, e =      -444.6994571483, g =  0.8674E-01
       right  : x =  0.1000E+04, e =      1000.0000000000, g =  0.1000E+04
       next   : x =  0.3867E+00
   GDM::      : max rotation in step is        0.372242749157049     
   ------- Leaving GDM -- hopefully with a step in the right direction! --------
 
   54    -444.6994571483      2.25E-02  Gap = 10.39 eV  Line search: overstep
 
   ------------------- Entering Geometric Direct Minimization ------------------
   GDM::trust : actual energy change is       -1.360897616206103E-002
   GDM::trust : predicted energy change was   -0.906344607063147     
   GDM::trust : updated trust radius is        0.108900000000000     
   GDM:         diagonal hessian shift is      0.000000000000000E+000
   GDM::PreWSS: input subspace size is                 16
   GDM::PreWSS: working subspace size set to           16
   GDM::PrEWSS: # of linearly dependent vectors =            1
   GDM::PrEWSS: Max dev from orthonormality =   4.001431130884470E-011
   GDM::BFGS:   lowest Hinv e-value    0.449717131411488     
   GDM::BFGS:   highest Hinv e-value    160612.532798158     
   GDM::trust : dogleg step length is          0.108900000000000     
   GDM::      : max scaling in EWCs is          2.31321003558549     
   GDM::      : max rotation in step is        0.101808790324577     
   GDM::        grad.step =  -1.076027523661786E-002
   ------- Leaving GDM -- hopefully with a step in the right direction! --------
 
   55    -444.7149114613      4.16E-02  Gap = 10.39 eV  Dog-leg BFGS step
 
   ------------------- Entering Geometric Direct Minimization ------------------
   GDM::trust : actual energy change is        9.145435762434317E-004
   GDM::trust : predicted energy change was   -1.578464753029933E-002
   GDM::trust : updated trust radius is        3.593700000000000E-002
   GDM::search:  On step            1 .  The current bracket is:
       left   : x =  0.0000E+00, e =      -444.7149114613, g = -0.6325E-01
       current: x =  0.1701E+00, e =      -444.7139969178, g =  0.7207E-01
       right  : x =  0.1000E+04, e =      1000.0000000000, g =  0.1000E+04
       next   : x =  0.7840E-01
   GDM::      : max rotation in step is        4.691681399769341E-002
   ------- Leaving GDM -- hopefully with a step in the right direction! --------
 
   56    -444.7139969178      9.94E-03  Gap = 10.39 eV  Line search: overstep
 
   ------------------- Entering Geometric Direct Minimization ------------------
   GDM::trust : actual energy change is       -2.443704142990555E-003
   GDM::trust : predicted energy change was   -1.578464753029933E-002
   GDM::trust : updated trust radius is        3.593700000000000E-002
   GDM:         diagonal hessian shift is      0.000000000000000E+000
   GDM::PreWSS: input subspace size is                 17
   GDM::PreWSS: working subspace size set to           17
   GDM::PrEWSS: # of linearly dependent vectors =            1
   GDM::PrEWSS: Max dev from orthonormality =   1.683506112293287E-011
   GDM::BFGS:   lowest Hinv e-value    0.269057570254408     
   GDM::BFGS:   highest Hinv e-value    143332.330045306     
   GDM::      : max scaling in EWCs is          2.30624591369876     
   GDM::      : max rotation in step is        2.064905327607271E-002
   GDM::        grad.step =  -2.687018178445454E-003
   ------- Leaving GDM -- hopefully with a step in the right direction! --------
 
   57    -444.7173551655      2.77E-02  Gap = 10.39 eV  Descent step
 
   ------------------- Entering Geometric Direct Minimization ------------------
   GDM::trust : actual energy change is       -8.743339564603048E-004
   GDM::trust : predicted energy change was   -2.685231452810639E-003
   GDM::trust : updated trust radius is        0.330000000000000     
   GDM:         diagonal hessian shift is      0.000000000000000E+000
   GDM::PreWSS: input subspace size is                 18
   GDM::PreWSS: working subspace size set to           18
   GDM::PrEWSS: # of linearly dependent vectors =            1
   GDM::PrEWSS: Max dev from orthonormality =   7.195898737988315E-011
   GDM::BFGS:   lowest Hinv e-value    0.261974066723768     
   GDM::BFGS:   highest Hinv e-value    149910.206957139     
   GDM::trust : dogleg step length is          0.330000000000000     
   GDM::      : max scaling in EWCs is          2.30456582869694     
   GDM::      : max rotation in step is        0.715957515068585     
   GDM::        grad.step =  -4.164017336663219E-003
   ------- Leaving GDM -- hopefully with a step in the right direction! --------
 
   58    -444.7182294994      2.36E-02  Gap = 10.39 eV  Dog-leg BFGS step
 
   ------------------- Entering Geometric Direct Minimization ------------------
   GDM::trust : actual energy change is        1.970266208201110E-002
   GDM::trust : predicted energy change was   -9.982726609805559E-003
   GDM::trust : updated trust radius is        0.108900000000000     
   GDM::search:  On step            1 .  The current bracket is:
       left   : x =  0.0000E+00, e =      -444.7182294994, g = -0.5761E-02
       current: x =  0.7228E+00, e =      -444.6985268374, g =  0.4918E-01
       right  : x =  0.1000E+04, e =      1000.0000000000, g =  0.1000E+04
       next   : x =  0.7228E-01
   GDM::      : max rotation in step is        7.159575150685848E-002
   ------- Leaving GDM -- hopefully with a step in the right direction! --------
 
   59    -444.6985268374      1.45E-02  Gap = 10.39 eV  Line search: overstep
 
   ------------------- Entering Geometric Direct Minimization ------------------
   GDM::trust : actual energy change is       -1.146575031043540E-004
   GDM::trust : predicted energy change was   -9.982726609805559E-003
   GDM::trust : updated trust radius is        0.108900000000000     
   GDM:         diagonal hessian shift is      0.000000000000000E+000
   GDM::PreWSS: input subspace size is                 19
   GDM::PreWSS: working subspace size set to           18
   GDM::PrEWSS: # of linearly dependent vectors =            1
   GDM::PrEWSS: Max dev from orthonormality =   5.064207941885002E-010
   GDM::BFGS:   lowest Hinv e-value    0.583965498987338     
   GDM::BFGS:   highest Hinv e-value    6420.50761097303     
   GDM::trust : dogleg step length is          0.108900000000000     
   GDM::      : max scaling in EWCs is          2.29933160591370     
   GDM::      : max rotation in step is       -7.093908979378021E-002
   GDM::        grad.step =  -5.531044609221907E-003
   ------- Leaving GDM -- hopefully with a step in the right direction! --------
 
   60    -444.7183441569      2.26E-02  Gap = 10.39 eV  Dog-leg BFGS step
 
   ------------------- Entering Geometric Direct Minimization ------------------
   GDM::trust : actual energy change is        9.609187114108408E-003
   GDM::trust : predicted energy change was   -5.638181353735750E-003
   GDM::trust : updated trust radius is        3.593700000000000E-002
   GDM::search:  On step            1 .  The current bracket is:
       left   : x =  0.0000E+00, e =      -444.7183441569, g = -0.3467E-01
       current: x =  0.1595E+00, e =      -444.7087349698, g =  0.1507E+00
       right  : x =  0.1000E+04, e =      1000.0000000000, g =  0.1000E+04
       next   : x =  0.2914E-01
   GDM::      : max rotation in step is       -1.295776964834624E-002
   ------- Leaving GDM -- hopefully with a step in the right direction! --------
 
   61    -444.7087349698      7.84E-03  Gap = 10.39 eV  Line search: overstep
 
   ------------------- Entering Geometric Direct Minimization ------------------
   GDM::trust : actual energy change is       -4.869676536145562E-004
   GDM::trust : predicted energy change was   -5.638181353735750E-003
   GDM::trust : updated trust radius is        3.593700000000000E-002
   GDM:         diagonal hessian shift is      0.000000000000000E+000
   GDM::PreWSS: input subspace size is                 19
   GDM::PreWSS: working subspace size set to           18
   GDM::PrEWSS: # of linearly dependent vectors =            2
   GDM::PrEWSS: Max dev from orthonormality =   3.076550819658408E-011
   GDM::BFGS:   lowest Hinv e-value    0.249671804378351     
   GDM::BFGS:   highest Hinv e-value    251.186521832552     
   GDM::trust : dogleg step length is          3.593700000000000E-002
   GDM::      : max scaling in EWCs is          2.29482211654680     
   GDM::      : max rotation in step is        2.545173653628421E-002
   GDM::        grad.step =  -1.036881993469156E-003
   ------- Leaving GDM -- hopefully with a step in the right direction! --------
 
   62    -444.7188311246      1.20E-02  Gap = 10.39 eV  Dog-leg BFGS step
 
   ------------------- Entering Geometric Direct Minimization ------------------
   GDM::trust : actual energy change is        1.143851754932257E-004
   GDM::trust : predicted energy change was   -2.044399473408324E-003
   GDM::trust : updated trust radius is        1.185921000000000E-002
   GDM::search:  On step            1 .  The current bracket is:
       left   : x =  0.0000E+00, e =      -444.7188311246, g = -0.1921E-01
       current: x =  0.5398E-01, e =      -444.7187167394, g =  0.2377E-01
       right  : x =  0.1000E+04, e =      1000.0000000000, g =  0.1000E+04
       next   : x =  0.2431E-01
   GDM::      : max rotation in step is        1.146147828604346E-002
   ------- Leaving GDM -- hopefully with a step in the right direction! --------
 
   63    -444.7187167394      1.22E-03  Gap = 10.39 eV  Line search: overstep
 
   ------------------- Entering Geometric Direct Minimization ------------------
   GDM::trust : actual energy change is       -2.354432757556424E-004
   GDM::trust : predicted energy change was   -2.044399473408324E-003
   GDM::trust : updated trust radius is        1.185921000000000E-002
   GDM:         diagonal hessian shift is      0.000000000000000E+000
   GDM::PreWSS: input subspace size is                 19
   GDM::PreWSS: working subspace size set to           18
   GDM::PrEWSS: # of linearly dependent vectors =            1
   GDM::PrEWSS: Max dev from orthonormality =   5.390953378148211E-010
   GDM::BFGS:   lowest Hinv e-value    0.272606194179783     
   GDM::BFGS:   highest Hinv e-value    212.852011155695     
   GDM::      : max scaling in EWCs is          2.29788877365824     
   GDM::      : max rotation in step is       -7.876924049857721E-003
   GDM::        grad.step =  -2.491237713984435E-004
   ------- Leaving GDM -- hopefully with a step in the right direction! --------
 
   64    -444.7190665679      9.43E-03  Gap = 10.39 eV  Descent step
 
   ------------------- Entering Geometric Direct Minimization ------------------
   GDM::trust : actual energy change is       -6.790499423914298E-005
   GDM::trust : predicted energy change was   -3.134614112688838E-004
   GDM::trust : updated trust radius is        0.330000000000000     
   GDM:         diagonal hessian shift is      0.000000000000000E+000
   GDM::PreWSS: input subspace size is                 19
   GDM::PreWSS: working subspace size set to           18
   GDM::PrEWSS: # of linearly dependent vectors =            1
   GDM::PrEWSS: Max dev from orthonormality =   9.292367153523884E-010
   GDM::BFGS:   lowest Hinv e-value    0.250245365283101     
   GDM::BFGS:   highest Hinv e-value    209.249381922802     
   GDM::      : max scaling in EWCs is          2.29513242639122     
   GDM::      : max rotation in step is       -0.351384347463543     
   GDM::        grad.step =  -3.009393236709487E-004
   ------- Leaving GDM -- hopefully with a step in the right direction! --------
 
   65    -444.7191344729      7.41E-03  Gap = 10.39 eV  Normal BFGS step
 
   ------------------- Entering Geometric Direct Minimization ------------------
   GDM::trust : actual energy change is        5.308554204077609E-003
   GDM::trust : predicted energy change was   -4.514089855064228E-004
   GDM::trust : updated trust radius is        0.108900000000000     
   GDM::search:  On step            1 .  The current bracket is:
       left   : x =  0.0000E+00, e =      -444.7191344729, g = -0.8485E-03
       current: x =  0.3547E+00, e =      -444.7138259187, g =  0.2996E-01
       right  : x =  0.1000E+04, e =      1000.0000000000, g =  0.1000E+04
       next   : x =  0.3547E-01
   GDM::      : max rotation in step is       -3.513843474635431E-002
   ------- Leaving GDM -- hopefully with a step in the right direction! --------
 
   66    -444.7138259187      3.97E-03  Gap = 0.00 eV  Line search: overstep
 
   ------------------- Entering Geometric Direct Minimization ------------------
   GDM::trust : actual energy change is        2.815578517356698E-005
   GDM::trust : predicted energy change was   -4.514089855064228E-004
   GDM::trust : updated trust radius is        3.593700000000000E-002
   GDM::search:  On step            2 .  The current bracket is:
       left   : x =  0.0000E+00, e =      -444.7191344729, g = -0.8485E-03
       current: x =  0.3547E-01, e =      -444.7191063171, g =  0.2431E-02
       right  : x =  0.3547E+00, e =         0.0000000000, g =  0.0000E+00
       next   : x =  0.9162E-02
   GDM::      : max rotation in step is       -9.076899626201586E-003
   ------- Leaving GDM -- hopefully with a step in the right direction! --------
 
   67    -444.7191063171      8.49E-04  Gap = 0.00 eV  Line search: overstep
 
   ------------------- Entering Geometric Direct Minimization ------------------
   GDM::trust : actual energy change is       -3.877815288433339E-006
   GDM::trust : predicted energy change was   -4.514089855064228E-004
   GDM::trust : updated trust radius is        3.593700000000000E-002
   GDM:         diagonal hessian shift is      0.000000000000000E+000
   GDM::PreWSS: input subspace size is                 19
   GDM::PreWSS: working subspace size set to           18
   GDM::PrEWSS: # of linearly dependent vectors =            2
   GDM::PrEWSS: Max dev from orthonormality =   3.312178968595259E-010
   GDM::BFGS:   lowest Hinv e-value    0.344516307704410     
   GDM::BFGS:   highest Hinv e-value    2.87677211816683     
   GDM::      : max scaling in EWCs is          2.29522095385784     
   GDM::      : max rotation in step is        2.110707931208030E-002
   GDM::        grad.step =  -3.997797290973989E-004
   ------- Leaving GDM -- hopefully with a step in the right direction! --------
 
   68    -444.7191383507      7.20E-03  Gap = 0.00 eV  Normal BFGS step
 
   ------------------- Entering Geometric Direct Minimization ------------------
   GDM::trust : actual energy change is        6.354119022944360E-005
   GDM::trust : predicted energy change was   -5.996695936460981E-004
   GDM::trust : updated trust radius is        0.108900000000000     
   GDM::search:  On step            1 .  The current bracket is:
       left   : x =  0.0000E+00, e =      -444.7191383507, g = -0.9326E-02
       current: x =  0.4287E-01, e =      -444.7190748095, g =  0.1245E-01
       right  : x =  0.1000E+04, e =      1000.0000000000, g =  0.1000E+04
       next   : x =  0.1849E-01
   GDM::      : max rotation in step is        9.106196264222847E-003
   ------- Leaving GDM -- hopefully with a step in the right direction! --------
 
   69    -444.7190748095      6.61E-04  Gap = 0.00 eV  Line search: overstep
 
   ------------------- Entering Geometric Direct Minimization ------------------
   GDM::trust : actual energy change is       -8.698305543930474E-005
   GDM::trust : predicted energy change was   -5.996695936460981E-004
   GDM::trust : updated trust radius is        0.108900000000000     
[...]
   GDM::      : max rotation in step is       -9.338740822629668E-005
   GDM::        grad.step =  -6.565527703013843E-008
   ------- Leaving GDM -- hopefully with a step in the right direction! --------
 
    2    -444.7297764674      9.54E-05  Gap = 10.39 eV  Normal BFGS step
 
   ------------------- Entering Geometric Direct Minimization ------------------
   GDM::trust : actual energy change is       -1.502786517448840E-008
   GDM::trust : predicted energy change was   -9.848291554520766E-008
   GDM::trust : updated trust radius is        0.330000000000000     
   GDM:         diagonal hessian shift is      0.000000000000000E+000
   GDM::PreWSS: input subspace size is                  3
   GDM::PreWSS: working subspace size set to            3
   GDM::PrEWSS: # of linearly dependent vectors =            2
   GDM::PrEWSS: Max dev from orthonormality =   7.355227538141662E-016
   GDM::BFGS:   lowest Hinv e-value    0.320353564603514     
   GDM::BFGS:   highest Hinv e-value    1.44844226914449     
   GDM::      : max scaling in EWCs is          2.28981318450070     
   GDM::      : max rotation in step is        6.566656973299508E-005
   GDM::        grad.step =  -4.197877799201978E-008
   ------- Leaving GDM -- hopefully with a step in the right direction! --------
 
    3    -444.7297764824      9.18E-05  Gap = 10.39 eV  Normal BFGS step
 
   ------------------- Entering Geometric Direct Minimization ------------------
   GDM::trust : actual energy change is        9.814698387344833E-009
   GDM::trust : predicted energy change was   -6.296816698802969E-008
   GDM::trust : updated trust radius is        0.108900000000000     
   GDM::search:  On step            1 .  The current bracket is:
       left   : x =  0.0000E+00, e =      -444.7297764824, g = -0.1985E-03
       current: x =  0.2115E-03, e =      -444.7297764726, g =  0.2912E-03
       right  : x =  0.1000E+04, e =      1000.0000000000, g =  0.1000E+04
       next   : x =  0.8572E-04
   GDM::      : max rotation in step is        2.661148222729805E-005
   ------- Leaving GDM -- hopefully with a step in the right direction! --------
 
    4    -444.7297764726      3.79E-05  Gap = 10.39 eV  Line search: overstep
 
   ------------------- Entering Geometric Direct Minimization ------------------
   GDM::trust : actual energy change is       -8.505708137818146E-009
   GDM::trust : predicted energy change was   -6.296816698802969E-008
   GDM::trust : updated trust radius is        0.108900000000000     
   GDM:         diagonal hessian shift is      0.000000000000000E+000
   GDM::PreWSS: input subspace size is                  4
   GDM::PreWSS: working subspace size set to            4
   GDM::PrEWSS: # of linearly dependent vectors =            3
   GDM::PrEWSS: Max dev from orthonormality =   9.020562075079397E-016
   GDM::BFGS:   lowest Hinv e-value    0.233730932282668     
   GDM::BFGS:   highest Hinv e-value    1.29332022675288     
   GDM::      : max scaling in EWCs is          2.28988611458685     
   GDM::      : max rotation in step is        4.283082933008226E-005
   GDM::        grad.step =  -8.244666912603379E-009
   ------- Leaving GDM -- hopefully with a step in the right direction! --------
 
    5    -444.7297764909      3.13E-05  Gap = 10.39 eV  Normal BFGS step
 
   ------------------- Entering Geometric Direct Minimization ------------------
   GDM::trust : actual energy change is       -2.732292614382459E-009
   GDM::trust : predicted energy change was   -1.236700036890507E-008
   GDM::trust : updated trust radius is        0.330000000000000     
   GDM:         diagonal hessian shift is      0.000000000000000E+000
   GDM::PreWSS: input subspace size is                  5
   GDM::PreWSS: working subspace size set to            5
   GDM::PrEWSS: # of linearly dependent vectors =            4
   GDM::PrEWSS: Max dev from orthonormality =   3.635980405647388E-015
   GDM::BFGS:   lowest Hinv e-value    0.231256151261259     
   GDM::BFGS:   highest Hinv e-value    1.18253705512580     
   GDM::      : max scaling in EWCs is          2.28999809423019     
   GDM::      : max rotation in step is       -1.346020240951548E-005
   GDM::        grad.step =  -8.572114272541578E-010
   ------- Leaving GDM -- hopefully with a step in the right direction! --------
 
    6    -444.7297764937      1.09E-05  Gap = 10.39 eV  Normal BFGS step
 
   ------------------- Entering Geometric Direct Minimization ------------------
   GDM::trust : actual energy change is       -4.330331648816355E-010
   GDM::trust : predicted energy change was   -1.285817140881237E-009
   GDM::trust : updated trust radius is        0.330000000000000     
   GDM:         diagonal hessian shift is      0.000000000000000E+000
   GDM::PreWSS: input subspace size is                  6
   GDM::PreWSS: working subspace size set to            6
   GDM::PrEWSS: # of linearly dependent vectors =            5
   GDM::PrEWSS: Max dev from orthonormality =   3.386180225106727E-015
   GDM::BFGS:   lowest Hinv e-value    0.233667244231619     
   GDM::BFGS:   highest Hinv e-value    1.28324551667969     
   GDM::      : max scaling in EWCs is          2.28997101624222     
   GDM::      : max rotation in step is        3.698618691596412E-006
   GDM::        grad.step =  -3.842454077076688E-011
   ------- Leaving GDM -- hopefully with a step in the right direction! --------
 
    7    -444.7297764941      2.42E-06  Gap = 10.39 eV  Normal BFGS step
 
   ------------------- Entering Geometric Direct Minimization ------------------
   GDM::trust : actual energy change is       -2.205524651799351E-011
   GDM::trust : predicted energy change was   -5.763681115615034E-011
   GDM::trust : updated trust radius is        0.330000000000000     
   GDM:         diagonal hessian shift is      0.000000000000000E+000
   GDM::PreWSS: input subspace size is                  7
   GDM::PreWSS: working subspace size set to            7
   GDM::PrEWSS: # of linearly dependent vectors =            6
   GDM::PrEWSS: Max dev from orthonormality =   5.245803791353865E-015
   GDM::BFGS:   lowest Hinv e-value    0.229393684288974     
   GDM::BFGS:   highest Hinv e-value    2.03711752347784     
   GDM::      : max scaling in EWCs is          2.28996893356967     
   GDM::      : max rotation in step is        2.875021042492893E-006
   GDM::        grad.step =  -1.267126959364888E-011
   ------- Leaving GDM -- hopefully with a step in the right direction! --------
 
    8    -444.7297764941      1.16E-06  Gap = 10.39 eV  Normal BFGS step
 
   ------------------- Entering Geometric Direct Minimization ------------------
   GDM::trust : actual energy change is       -7.730704965069890E-012
   GDM::trust : predicted energy change was   -1.900690439047332E-011
   GDM::trust : updated trust radius is        0.330000000000000     
   GDM:         diagonal hessian shift is      0.000000000000000E+000
   GDM::PreWSS: input subspace size is                  8
   GDM::PreWSS: working subspace size set to            8
   GDM::PrEWSS: # of linearly dependent vectors =            7
   GDM::PrEWSS: Max dev from orthonormality =   6.980527267330672E-015
   GDM::BFGS:   lowest Hinv e-value    0.230330111072020     
   GDM::BFGS:   highest Hinv e-value    2.34234132701940     
   GDM::      : max scaling in EWCs is          2.28996986982102     
   GDM::      : max rotation in step is        7.227769285910146E-007
   GDM::        grad.step =  -8.427856455877117E-013
   ------- Leaving GDM -- hopefully with a step in the right direction! --------
 
    9    -444.7297764941      3.00E-07  Gap = 10.39 eV  Normal BFGS step
 
   ------------------- Entering Geometric Direct Minimization ------------------
   GDM::trust : actual energy change is       -7.389644451905042E-013
   GDM::trust : predicted energy change was   -1.264178468381568E-012
   GDM::trust : updated trust radius is        0.330000000000000     
   GDM:         diagonal hessian shift is      0.000000000000000E+000
   GDM::PreWSS: input subspace size is                  9
   GDM::PreWSS: working subspace size set to            9
   GDM::PrEWSS: # of linearly dependent vectors =            8
   GDM::PrEWSS: Max dev from orthonormality =   1.273980920757367E-014
   GDM::BFGS:   lowest Hinv e-value    0.230330890136565     
   GDM::BFGS:   highest Hinv e-value    2.36623519113819     
   GDM::      : max scaling in EWCs is          2.28997020430597     
   GDM::      : max rotation in step is        1.266629566936350E-007
   GDM::        grad.step =  -2.759343243182790E-014
   ------- Leaving GDM -- hopefully with a step in the right direction! --------
 
   10    -444.7297764941      7.89E-08  Gap = 10.39 eV  Normal BFGS step
 
   ------------------- Entering Geometric Direct Minimization ------------------
   GDM::trust : actual energy change is        3.410605131648481E-013
   GDM::trust : predicted energy change was   -4.139014864774186E-014
   GDM::trust : updated trust radius is        0.108900000000000     
   GDM::WARNING energy changes are now smaller than effective accuracy.
   GDM::        calculation will continue, but THRESH should be increased
   GDM::        or SCF_CONVERGENCE decreased.
   GDM::        effective_thresh =   1.500000000000000E-010
   GDM:         diagonal hessian shift is      0.000000000000000E+000
   GDM::PreWSS: input subspace size is                 10
   GDM::PreWSS: working subspace size set to           10
   GDM::PrEWSS: # of linearly dependent vectors =            9
   GDM::PrEWSS: Max dev from orthonormality =   2.638167462265528E-014
   GDM::BFGS:   lowest Hinv e-value    0.230213551510787     
   GDM::BFGS:   highest Hinv e-value    2.31876405333685     
   GDM::      : max scaling in EWCs is          2.28997029612155     
   GDM::      : max rotation in step is        6.102678568314309E-008
   GDM::        grad.step =  -4.194328468016274E-015
   ------- Leaving GDM -- hopefully with a step in the right direction! --------
 
   11    -444.7297764941      2.48E-08  Gap = 10.39 eV  Normal BFGS step
 
   ------------------- Entering Geometric Direct Minimization ------------------
   GDM::trust : actual energy change is        5.684341886080801E-014
   GDM::trust : predicted energy change was   -6.291492702024412E-015
   GDM::trust : updated trust radius is        0.108900000000000     
   GDM::WARNING energy changes are now smaller than effective accuracy.
   GDM::        calculation will continue, but THRESH should be increased
   GDM::        or SCF_CONVERGENCE decreased.
   GDM::        effective_thresh =   1.500000000000000E-010
   GDM:         diagonal hessian shift is      0.000000000000000E+000
   GDM::PreWSS: input subspace size is                 11
   GDM::PreWSS: working subspace size set to           11
   GDM::PrEWSS: # of linearly dependent vectors =           10
   GDM::PrEWSS: Max dev from orthonormality =   9.232458547669964E-014
   GDM::BFGS:   lowest Hinv e-value    0.230356969990536     
   GDM::BFGS:   highest Hinv e-value    2.32533930662799     
   GDM::      : max scaling in EWCs is          2.28997026886421     
   GDM::      : max rotation in step is        9.158664505577621E-009
   GDM::        grad.step =  -1.136538202331109E-016
   ------- Leaving GDM -- hopefully with a step in the right direction! --------
 
   12    -444.7297764941      5.38E-09 Convergence criterion met
 ---------------------------------------
 One-Electron    Energy =  -720.0890720399
 Total Coulomb   Energy =   260.9670274688
 Alpha Exchange  Energy =    -3.0983188699
 Beta  Exchange  Energy =    -2.9724172650
 DFT   Exchange  Energy =   -24.1862712487
 DFT Correlation Energy =    -1.2829451254
 Nuclear Repu.   Energy =    45.9322205860
 Nuclear Attr.   Energy = -1141.1985977689
 Kinetic         Energy =   421.1095257289
 <S^2> = 2.0134
 SCF time:  CPU 20.39 s  wall 3.58 s
 SCF   energy in the final basis set = -444.7297764941
 Total energy in the final basis set = -444.7297764941
 
 --------------------------------------------------------------
 
                    Orbital Energies (a.u.)
 --------------------------------------------------------------
 
 Alpha MOs
 -- Occupied --
-88.811  -7.890  -5.849  -5.849  -5.849  -2.047  -1.251  -1.247
 -1.247  -0.624  -0.274  -0.253  -0.253  -0.189  -0.188
 -- Virtual --
 -0.092  -0.083  -0.083  -0.072  -0.015  -0.015   0.023   0.073
  0.079   0.079   0.097   0.097   0.131   0.144   0.170   0.187
  0.215   0.230   0.230   0.515   0.561   0.561   0.586   0.828
  0.829   0.842   0.857   0.857   3.331
 
 Beta MOs
 -- Occupied --
-88.811  -7.891  -5.851  -5.851  -5.850  -2.016  -1.227  -1.206
 -1.206  -0.629  -0.272  -0.253  -0.253
 -- Virtual --
 -0.107  -0.069  -0.061  -0.061  -0.058  -0.054   0.000   0.000
  0.026   0.075   0.091   0.091   0.103   0.103   0.135   0.154
  0.201   0.208   0.231   0.239   0.239   0.519   0.558   0.558
  0.585   0.822   0.822   0.841   0.853   0.853   3.342
 --------------------------------------------------------------
 
          Ground-State Mulliken Net Atomic Charges

     Atom                 Charge (a.u.)    Spin (a.u.)
  --------------------------------------------------------
      1 Zr                    0.498045       2.026077
      2 S                    -0.498045      -0.026077
  --------------------------------------------------------
  Sum of atomic charges =     0.000000
  Sum of spin   charges =     2.000000

 -----------------------------------------------------------------
                    Cartesian Multipole Moments
 -----------------------------------------------------------------
    Charge (ESU x 10^10)
                 0.0000
    Dipole Moment (Debye)
         X       0.0000      Y       0.0000      Z      -5.5143
       Tot       5.5143
    Quadrupole Moments (Debye-Ang)
        XX     -37.5993     XY       0.0000     YY     -37.5993
        XZ       0.0000     YZ       0.0000     ZZ     -37.6609
    Octopole Moments (Debye-Ang^2)
       XXX       0.0000    XXY       0.0000    XYY       0.0000
       YYY       0.0000    XXZ      -8.6888    XYZ       0.0000
       YYZ      -8.6888    XZZ       0.0000    YZZ       0.0000
       ZZZ     -35.1013
    Hexadecapole Moments (Debye-Ang^3)
      XXXX     -77.4546   XXXY       0.0001   XXYY     -27.9168
      XYYY      -0.0001   YYYY     -77.4546   XXXZ       0.0000
      XXYZ       0.0000   XYYZ       0.0000   YYYZ       0.0000
      XXZZ     -68.7445   XYZZ       0.0000   YYZZ     -68.7445
      XZZZ       0.0000   YZZZ       0.0000   ZZZZ    -331.4972
 -----------------------------------------------------------------
 Calculating analytic gradient of the SCF energy
 Gradient of SCF Energy
            1           2
    1  -0.0000000   0.0000000
    2  -0.0000000   0.0000000
    3   0.0000114  -0.0000114
 Max gradient component =       1.136E-05
 RMS gradient           =       6.557E-06
 Gradient time:  CPU 4.99 s  wall 1.08 s
 Geometry Optimization Parameters
   NAtoms,    NIC,     NZ,  NCons,   NDum,   NFix, NCnnct, MaxDiis
        2       5       0       0       0       0       0       0

 Cartesian Hessian Update
 Hessian Updated using BFGS Update


** GEOMETRY OPTIMIZATION IN CARTESIAN COORDINATES **
   Searching for a Minimum

   Optimization Cycle:   5

                       Coordinates (Angstroms)
     ATOM                X               Y               Z
      1  Zr        0.0000000000    0.0000000000   -0.6406591251
      2  S         0.0000000000    0.0000000000    1.5713391251
   Point Group: c1    Number of degrees of freedom:     0


   Energy is   -444.729776494


 Translations and Rotations Projected Out of Hessian

  1 Hessian modes will be used to form the next step
  Hessian Eigenvalues:
     0.503701

 Minimum Search - Taking Simple RFO Step
 Searching for Lamda that Minimizes Along All modes
 Value Taken    Lamda =   0.00000000
 Step Taken.  Stepsize is  0.000032

                             Maximum     Tolerance    Cnvgd?
         Gradient           0.000011      0.000300     YES
         Displacement       0.000023      0.001200     YES
         Energy change      0.000000      0.000001     YES


                       Distance Matrix (Angstroms)
             Zr(  1)
   S (  2)  2.211998
 
 Final energy is   -444.729776494140     


 ******************************
 **  OPTIMIZATION CONVERGED  **
 ******************************

                       Coordinates (Angstroms)
     ATOM                X               Y               Z
      1  Zr        0.0000000000    0.0000000000   -0.6406591251
      2  S         0.0000000000    0.0000000000    1.5713391251

Z-matrix Print:
$molecule
0 3
Zr
S  1 2.211998
$end

 
 --------------------------------------------------------------
 
                    Orbital Energies (a.u.)
 --------------------------------------------------------------
 
 Alpha MOs
 -- Occupied --
-88.811  -7.890  -5.849  -5.849  -5.849  -2.047  -1.251  -1.247
 -1.247  -0.624  -0.274  -0.253  -0.253  -0.189  -0.188
 -- Virtual --
 -0.092  -0.083  -0.083  -0.072  -0.015  -0.015   0.023   0.073
  0.079   0.079   0.097   0.097   0.131   0.144   0.170   0.187
  0.215   0.230   0.230   0.515   0.561   0.561   0.586   0.828
  0.829   0.842   0.857   0.857   3.331
 
 Beta MOs
 -- Occupied --
-88.811  -7.891  -5.851  -5.851  -5.850  -2.016  -1.227  -1.206
 -1.206  -0.629  -0.272  -0.253  -0.253
 -- Virtual --
 -0.107  -0.069  -0.061  -0.061  -0.058  -0.054   0.000   0.000
  0.026   0.075   0.091   0.091   0.103   0.103   0.135   0.154
  0.201   0.208   0.231   0.239   0.239   0.519   0.558   0.558
  0.585   0.822   0.822   0.841   0.853   0.853   3.342
 --------------------------------------------------------------
 
          Ground-State Mulliken Net Atomic Charges

     Atom                 Charge (a.u.)    Spin (a.u.)
  --------------------------------------------------------
      1 Zr                    0.498045       2.026077
      2 S                    -0.498045      -0.026077
  --------------------------------------------------------
  Sum of atomic charges =     0.000000
  Sum of spin   charges =     2.000000

 -----------------------------------------------------------------
                    Cartesian Multipole Moments
 -----------------------------------------------------------------
    Charge (ESU x 10^10)
                 0.0000
    Dipole Moment (Debye)
         X       0.0000      Y       0.0000      Z      -5.5143
       Tot       5.5143
    Quadrupole Moments (Debye-Ang)
        XX     -37.5993     XY       0.0000     YY     -37.5993
        XZ       0.0000     YZ       0.0000     ZZ     -37.6609
    Octopole Moments (Debye-Ang^2)
       XXX       0.0000    XXY       0.0000    XYY       0.0000
       YYY       0.0000    XXZ      -8.6888    XYZ       0.0000
       YYZ      -8.6888    XZZ       0.0000    YZZ       0.0000
       ZZZ     -35.1013
    Hexadecapole Moments (Debye-Ang^3)
      XXXX     -77.4546   XXXY       0.0001   XXYY     -27.9168
      XYYY      -0.0001   YYYY     -77.4546   XXXZ       0.0000
      XXYZ       0.0000   XYYZ       0.0000   YYYZ       0.0000
      XXZZ     -68.7445   XYZZ       0.0000   YYZZ     -68.7445
      XZZZ       0.0000   YZZZ       0.0000   ZZZZ    -331.4972
 -----------------------------------------------------------------
Archival summary:
1\1\hpc3913\OPT\ProcedureUnspecified\BasisUnspecified\r11(\liqiuy\FriJan1720:07:212020FriJan1720:07:212020\0\\#,OPT,ProcedureUnspecified,BasisUnspecified,\\28,3\Zr\S,1,2.212\\\@

 Total job time:  27.41s(wall), 152.78s(cpu) 
 Fri Jan 17 20:07:21 2020

        *************************************************************
        *                                                           *
        *  Thank you very much for using Q-Chem.  Have a nice day.  *
        *                                                           *
        *************************************************************


0 sent ACK to 0 
now end server 0 ... 
cleanup process ... done
