
Running Job 1 of 2 ZrOx.in
qchem ZrOx.in_31692.0 /tmp/5733221.priya/ZrOx.save/ 1
/usr/usc/qchem/4.4/bin/mpi/mpirun_qchem -machinefile /usr/usc/qchem/4.4/bin/mpi/machines -np 1 /usr/usc/qchem/4.4/exe/qcprog.exe ZrOx.in_31692.0 /tmp/5733221.priya/ZrOx.save/

Process 0 of 1 is on hpc0488.hpcc.usc.edu - thread support 0
initial socket setup ...start
initial socket setup ...done 
now start server 0 ... 
Check license passed

                  Welcome to Q-Chem
     A Quantum Leap Into The Future Of Chemistry


 Q-Chem 4.4, Q-Chem, Inc., Pleasanton, CA (2016)

 Y. Shao,  Z. Gan,  E. Epifanovsky,  A. T. B. Gilbert,  M. Wormit,  
 J. Kussmann,  A. W. Lange,  A. Behn,  J. Deng,  X. Feng,  D. Ghosh,  
 M. Goldey,  P. R. Horn,  L. D. Jacobson,  I. Kaliman,  F.Rob,  
 R. Z. Khaliullin,  T. Kus,  A. Landau,  J. Liu,  E. I. Proynov,  Y. M. Rhee,  
 R. M. Richard,  M. A. Rohrdanz,  R. P. Steele,  E. J. Sundstrom,  
 H. L. Woodcock III,  P. M. Zimmerman,  D. Zuev,  B. Albrecht,  E. Alguire,  
 B. Austin,  S. A. Baeppler,  G. J. O. Beran,  Y. A. Bernard,  E. Berquist,  
 K. Brandhorst,  K. B. Bravaya,  S. T. Brown,  D. Casanova,  C.-M. Chang,  
 Y. Chen,  S. H. Chien,  K. D. Closser,  M. P. Coons,  D. L. Crittenden,  
 S. Dasgupta,  M. Diedenhofen,  R. A. DiStasio Jr.,  H. Do,  A. D. Dutoi,  
 R. G. Edgar,  P.-T. Fang,  S. Fatehi,  Q. Feng,  L. Fusti-Molnar,  
 A. Ghysels,  A. Golubeva-Zadorozhnaya,  J. Gomes,  A. Gunina,  
 M. W. D. Hanson-Heine,  P. H. P. Harbach,  A. W. Hauser,  E. G. Hohenstein,  
 Z. C. Holden,  K. Hui,  T.-C. Jagau,  H. Ji,  B. Kaduk,  K. Khistyaev,  
 Jaehoon Kim,  Jihan Kim,  R. A. King,  P. Klunzinger,  D. Kosenkov,  
 T. Kowalczyk,  C. M. Krauter,  A. Kunitsa,  K. U. Lao,  A. Laurent,  
 K. V. Lawler,  D. Lefrancois,  S. Lehtola,  S. V. Levchenko,  C. Y. Lin,  
 Y.-S. Lin,  F. Liu,  E. Livshits,  R. C. Lochan,  A. Luenser,  P. Manohar,  
 S. F. Manzer,  S.-P. Mao,  Y. Mao,  N. Mardirossian,  A. V. Marenich,  
 L. A. Martinez-Martinez,  S. A. Maurer,  N. J. Mayhall,  J.-M. Mewes,  
 A. F. Morrison,  K. Nanda,  C. M. Oana,  R. Olivares-Amaya,  D. P. O'Neill,  
 J. A. Parkhill,  T. M. Perrine,  R. Peverati,  P. A. Pieniazek,  F. Plasser,  
 A. Prociuk,  D. R. Rehn,  E. Rosta,  N. J. Russ,  N. Sergueev,  
 S. M. Sharada,  S. Sharma,  D. W. Small,  A. Sodt,  T. Stauch,  T. Stein,  
 D. Stuck,  Y.-C. Su,  A. J. W. Thom,  T. Tsuchimochi,  L. Vogt,  O. Vydrov,  
 T. Wang,  M. A. Watson,  J. Wenzel,  A. White,  C. F. Williams,  
 V. Vanovschi,  S. Yeganeh,  S. R. Yost,  Z.-Q. You,  I. Y. Zhang,  X. Zhang,  
 Y. Zhao,  B. R. Brooks,  G. K. L. Chan,  D. M. Chipman,  C. J. Cramer,  
 W. A. Goddard III,  M. S. Gordon,  W. J. Hehre,  A. Klamt,  
 H. F. Schaefer III,  M. W. Schmidt,  C. D. Sherrill,  D. G. Truhlar,  
 A. Warshel,  X. Xu,  A. Aspuru-Guzik,  R. Baer,  A. T. Bell,  N. A. Besley,  
 J.-D. Chai,  A. Dreuw,  B. D. Dunietz,  T. R. Furlani,  S. R. Gwaltney,  
 C.-P. Hsu,  Y. Jung,  J. Kong,  D. S. Lambrecht,  W. Liang,  C. Ochsenfeld,  
 V. A. Rassolov,  L. V. Slipchenko,  J. E. Subotnik,  T. Van Voorhis,  
 J. M. Herbert,  A. I. Krylov,  P. M. W. Gill,  M. Head-Gordon

 Contributors to earlier versions of Q-Chem not listed above: 
 R. D. Adamson,  J. Baker,  E. F. C. Byrd,  A. K. Chakraborty,  C.-L. Cheng,  
 H. Dachsel,  R. J. Doerksen,  G. Hawkins,  A. Heyden,  S. Hirata,  
 G. Kedziora,  F. J. Keil,  C. Kelley,  P. P. Korambath,  W. Kurlancheek,  
 A. M. Lee,  M. S. Lee,  D. Liotard,  I. Lotan,  P. E. Maslen,  N. Nair,  
 D. Neuhauser,  R. Olson,  B. Peters,  J. Ritchie,  N. E. Schultz,  
 N. Shenvi,  A. C. Simmonett,  K. S. Thanthiriwatte,  Q. Wu,  W. Zhang

 Please cite Q-Chem as follows:
 Y. Shao et al., Mol. Phys. 113, 184-215 (2015)
 DOI: 10.1080/00268976.2014.952696

 Q-Chem 4.4.1 for Intel X86 Linux

 Parts of Q-Chem use Armadillo 5.200.1 (Boston Tea Smuggler).
 http://arma.sourceforge.net/

 Q-Chem begins on Fri Jan 17 21:24:10 2020  

Host: 
0

     Scratch files written to /tmp/5733221.priya/ZrOx.save//
 Jul2716 11668_ 21447  21445 5558   
 Parallel job on  1  processors
Processing $rem in /usr/usc/qchem/4.4/config/preferences.
 MEM_TOTAL  2000 

Checking the input file for inconsistencies... 	...done.

--------------------------------------------------------------
User input:
--------------------------------------------------------------
$comment
--------------------------------------------------------
A SINGLE POINT DFT CALCULATION WITH BASIS SET PROJECTION
--------------------------------------------------------
$end

$molecule
0 1
Zr 0.82957 0.53215 -0.23900
Zr -1.20767 -0.43473 0.41179
O 0.59733 2.19512 -0.57128
O -0.25119 -0.73369 -1.26857
O -0.92918 -1.56478 1.66706
$end

$rem
JOBTYPE   SP
METHOD   B3LYP
BASIS   GEN
ECP   GEN
MAX_SCF_CYCLES   200
SCF_CONVERGENCE 8
SCF_PRINT 1
PDB_PRINT 2
THRESH 14
VARTHRESH 14
INCDFT FALSE
SYMMETRY False
Sym_ignore True
SCF_ALGORITHM GDM
XC_GRID 000128000302
DFT_D           EMPIRICAL_GRIMME3
DFT_D3_S6       1000
DFT_D3_RS6     1261
DFT_D3_S8      1703
DFT_D3_3BODY    FALSE
$end

$basis
O
6-31+G**
****
S
6-31+G**
****
Zr
LanL2DZ
****
$end

$ecp
Zr
LanL2DZ
****
$end

--------------------------------------------------------------
 ----------------------------------------------------------------
             Standard Nuclear Orientation (Angstroms)
    I     Atom           X                Y                Z
 ----------------------------------------------------------------
    1      Zr      0.8295700000     0.5321500000    -0.2390000000
    2      Zr     -1.2076700000    -0.4347300000     0.4117900000
    3      O       0.5973300000     2.1951200000    -0.5712800000
    4      O      -0.2511900000    -0.7336900000    -1.2685700000
    5      O      -0.9291800000    -1.5647800000     1.6670600000
 ----------------------------------------------------------------
 Nuclear Repulsion Energy =   203.1667646767 hartrees
 There are       24 alpha and       24 beta electrons

 Q-Chem warning in module /home/scratch/svnadmin/11668_zgan/qchem/forms1/BasisType.C, line 1419:

 Setting pure/cartesian flag to 2111 for general basis


 Requested basis set is non-standard
 There are 31 shells and 98 basis functions

 Total QAlloc Memory Limit   2000 MB
 Mega-Array Size        61 MB
 MEM_STATIC part        62 MB

                       Distance Matrix (Angstroms)
             Zr(  1)   Zr(  2)   O (  3)   O (  4)
   Zr(  2)  2.347069
   O (  3)  1.711670  3.337748
   O (  4)  1.957143  1.956487  3.127959
   O (  5)  3.335173  1.711804  4.634355  3.125429
 
 A cutoff of  1.0D-14 yielded    486 shell pairs
 There are      4916 function pairs (      5655 Cartesian)
 
 -------------------------------------------------------
 OpenMP Integral Computing Module                       
 Release: version 1.0, May 2013, Q-Chem Inc. Pittsburgh 
 -------------------------------------------------------
 Integral Job Info:
 Integral job number is                      11
 Integral operator is                         1
 short-range coefficients                     0
 long-range coefficients              100000000
 Omega coefficients                           0
 if combine SR and LR in K                    0
 Integral screening is                        0
 Integral computing path is                   2
 max size of driver memory is            800000
 size of driver memory is                593474
 size of scratch memory is             11771240
 max col of scratch BK array               1296
 max len of scratch array in speh3          155
 max len of scratch index in speh4           18
 max int batch size is                      520
 min int batch size is                       52
 fixed nKL is                                52
 max L of basis functions is                  2
 order of int derivative is                   0
 number of shells is                         31
 number of basis is                         105
 number of cartesian basis is               105
 number of contracted shell pairs           486
 number of primitive shell pairs           2332
 maxK2 (contraction) of shell pair           36
 max number of K2 of shell pair               1
 max number of CS2 of shell pair             30
 max number of PS2 of shell pair            144
 mem total for path MDJ                   23422
 -------------------------------------------------------
 Requested basis set is non-standard
 Compound shells will be simplified
 There are 40 shells and 98 basis functions
 A cutoff of  1.0D-14 yielded    803 shell pairs
 There are      4889 function pairs (      5628 Cartesian)
 Smallest overlap matrix eigenvalue = 6.71E-04

 Scale SEOQF with 1.000000e-01/1.000000e-01/1.000000e-01

 Standard Electronic Orientation quadrupole field applied
 Nucleus-field energy     =     0.0000000018 hartrees
 Guess MOs from core Hamiltonian diagonalization
 A restricted hybrid HF-DFT SCF calculation will be
 performed using Geometric Direct Minimization
 Exchange:     0.2000 Hartree-Fock + 0.0800 Slater + 0.7200 B88
 Correlation:  0.1900 VWN1RPA + 0.8100 LYP
 Using Euler-Maclaurin-Lebedev (128,302) quadrature formula
 Dispersion:   Grimme D3
 SCF converges when RMS gradient is below 1.0E-08
 Maximum number of minimization steps = 200
 using 12 threads for integral computing 
 -------------------------------------------------------
 OpenMP BLAS3 based DFT computing Module                
 Release: version 1.0, May 2013, Q-Chem Inc. Pittsburgh 
 -------------------------------------------------------
 
   ------------------- Entering Geometric Direct Minimization ------------------
   GDM:         diagonal hessian shift is      0.000000000000000E+000
   GDM::PreWSS: input subspace size is                  1
   GDM::PreWSS: working subspace size set to            1
   GDM::PrEWSS: # of linearly dependent vectors =            0
   GDM::PrEWSS: Max dev from orthonormality =   2.220446049250313E-016
   GDM::BFGS:   lowest Hinv e-value     1.00000000000000     
   GDM::BFGS:   highest Hinv e-value    1.00000000000000     
   GDM::      : max scaling in EWCs is          1.41421356237309     
   GDM::      : max rotation in step is        0.161769817774197     
   GDM::        grad.step =   -2.25596581919038     
   ------- Leaving GDM -- hopefully with a step in the right direction! --------
 
 ---------------------------------------
  Cycle       Energy        RMS Gradient
 ---------------------------------------
    1    -294.1252469237      2.37E+00  Gap = 0.00 eV  Descent step
 
   ------------------- Entering Geometric Direct Minimization ------------------
   GDM::trust : actual energy change is        -4.38632270346864     
   GDM::trust : predicted energy change was   -0.163350000000000     
   GDM::trust : updated trust radius is        0.330000000000000     
   GDM:         diagonal hessian shift is      0.000000000000000E+000
   GDM::PreWSS: input subspace size is                  2
   GDM::PreWSS: working subspace size set to            2
   GDM::PrEWSS: # of linearly dependent vectors =            0
   GDM::PrEWSS: Max dev from orthonormality =   2.664535259100376E-015
   GDM::BFGS:   lowest Hinv e-value    0.564025569454536     
   GDM::BFGS:   highest Hinv e-value    2.41112923359826     
   GDM::      : max scaling in EWCs is          1.41421356237309     
   GDM::      : max rotation in step is       -0.105109662759141     
   GDM::        grad.step =   -2.05113452002631     
   ------- Leaving GDM -- hopefully with a step in the right direction! --------
 
    2    -298.5115696272      1.72E+00  Gap = 0.00 eV  Descent step
 
   ------------------- Entering Geometric Direct Minimization ------------------
   GDM::trust : actual energy change is        -4.02788980425220     
   GDM::trust : predicted energy change was   -0.144945555678874     
   GDM::trust : updated trust radius is        0.330000000000000     
   GDM:         diagonal hessian shift is      0.000000000000000E+000
   GDM::PreWSS: input subspace size is                  3
   GDM::PreWSS: working subspace size set to            3
   GDM::PrEWSS: # of linearly dependent vectors =            0
   GDM::PrEWSS: Max dev from orthonormality =   3.059913433745010E-013
   GDM::BFGS:   lowest Hinv e-value    0.439923463141750     
   GDM::BFGS:   highest Hinv e-value    1.68212783121477     
   GDM::      : max scaling in EWCs is          1.41421356237309     
   GDM::      : max rotation in step is       -0.139302050883177     
   GDM::        grad.step =   -2.46791017421585     
   ------- Leaving GDM -- hopefully with a step in the right direction! --------
 
    3    -302.5394594314      2.23E+00  Gap = 0.00 eV  Descent step
 
   ------------------- Entering Geometric Direct Minimization ------------------
   GDM::trust : actual energy change is        -4.65736909412965     
   GDM::trust : predicted energy change was   -0.150805739614850     
   GDM::trust : updated trust radius is        0.330000000000000     
   GDM:         diagonal hessian shift is      0.000000000000000E+000
   GDM::PreWSS: input subspace size is                  4
   GDM::PreWSS: working subspace size set to            4
   GDM::PrEWSS: # of linearly dependent vectors =            0
   GDM::PrEWSS: Max dev from orthonormality =   1.091387397123000E-012
   GDM::BFGS:   lowest Hinv e-value    0.414678529086630     
   GDM::BFGS:   highest Hinv e-value    1.80901288224102     
   GDM::      : max scaling in EWCs is          1.41421356237309     
   GDM::      : max rotation in step is        0.169194074771120     
   GDM::        grad.step =   -1.82634579519936     
   ------- Leaving GDM -- hopefully with a step in the right direction! --------
 
    4    -307.1968285255      2.01E+00  Gap = 0.00 eV  Descent step
 
   ------------------- Entering Geometric Direct Minimization ------------------
   GDM::trust : actual energy change is        -3.36373989079635     
   GDM::trust : predicted energy change was   -0.183670607867629     
   GDM::trust : updated trust radius is        0.330000000000000     
   GDM:         diagonal hessian shift is      0.000000000000000E+000
   GDM::PreWSS: input subspace size is                  5
   GDM::PreWSS: working subspace size set to            5
   GDM::PrEWSS: # of linearly dependent vectors =            0
   GDM::PrEWSS: Max dev from orthonormality =   3.463743181164602E-012
   GDM::BFGS:   lowest Hinv e-value    0.416364292170611     
   GDM::BFGS:   highest Hinv e-value    1.96569598622352     
   GDM::      : max scaling in EWCs is          1.41421356237309     
   GDM::      : max rotation in step is        0.150428133571989     
   GDM::        grad.step =   -1.31502475286371     
   ------- Leaving GDM -- hopefully with a step in the right direction! --------
 
    5    -310.5605684163      1.46E+00  Gap = 0.00 eV  Descent step
 
   ------------------- Entering Geometric Direct Minimization ------------------
   GDM::trust : actual energy change is        -2.37706860452215     
   GDM::trust : predicted energy change was   -0.200030005327780     
   GDM::trust : updated trust radius is        0.330000000000000     
   GDM:         diagonal hessian shift is      0.000000000000000E+000
   GDM::PreWSS: input subspace size is                  6
   GDM::PreWSS: working subspace size set to            6
   GDM::PrEWSS: # of linearly dependent vectors =            0
   GDM::PrEWSS: Max dev from orthonormality =   1.358493179060005E-012
   GDM::BFGS:   lowest Hinv e-value    0.423837279918357     
   GDM::BFGS:   highest Hinv e-value    2.09604528725654     
   GDM::      : max scaling in EWCs is          2.82842712474619     
   GDM::      : max rotation in step is        0.121785338758177     
   GDM::        grad.step =   -1.03935476966535     
   ------- Leaving GDM -- hopefully with a step in the right direction! --------
 
    6    -312.9376370209      6.04E-01  Gap = 0.00 eV  Descent step
 
   ------------------- Entering Geometric Direct Minimization ------------------
   GDM::trust : actual energy change is        -1.85159079308630     
   GDM::trust : predicted energy change was   -0.187658867905548     
   GDM::trust : updated trust radius is        0.330000000000000     
   GDM:         diagonal hessian shift is      0.000000000000000E+000
   GDM::PreWSS: input subspace size is                  7
   GDM::PreWSS: working subspace size set to            7
   GDM::PrEWSS: # of linearly dependent vectors =            0
   GDM::PrEWSS: Max dev from orthonormality =   7.845273042317302E-012
   GDM::BFGS:   lowest Hinv e-value    0.349702818316328     
   GDM::BFGS:   highest Hinv e-value    2.23450029962521     
   GDM::      : max scaling in EWCs is          2.82842712474619     
   GDM::      : max rotation in step is        0.160238695090719     
   GDM::        grad.step =  -0.944510938174618     
   ------- Leaving GDM -- hopefully with a step in the right direction! --------
 
    7    -314.7892278139      5.47E-01  Gap = 0.00 eV  Descent step
 
   ------------------- Entering Geometric Direct Minimization ------------------
   GDM::trust : actual energy change is        -1.65904428341236     
   GDM::trust : predicted energy change was   -0.171048268078337     
   GDM::trust : updated trust radius is        0.330000000000000     
   GDM:         diagonal hessian shift is      0.000000000000000E+000
   GDM::PreWSS: input subspace size is                  8
   GDM::PreWSS: working subspace size set to            8
   GDM::PrEWSS: # of linearly dependent vectors =            0
   GDM::PrEWSS: Max dev from orthonormality =   5.195977328953383E-012
   GDM::BFGS:   lowest Hinv e-value    0.262127146193121     
   GDM::BFGS:   highest Hinv e-value    2.29094155013833     
   GDM::      : max scaling in EWCs is          2.82842712474619     
   GDM::      : max rotation in step is        0.220550452789383     
   GDM::        grad.step =  -0.798483020452756     
   ------- Leaving GDM -- hopefully with a step in the right direction! --------
 
    8    -316.4482720974      5.72E-01  Gap = 0.00 eV  Descent step
 
   ------------------- Entering Geometric Direct Minimization ------------------
   GDM::trust : actual energy change is        -1.19360134559332     
   GDM::trust : predicted energy change was   -0.180152666081597     
   GDM::trust : updated trust radius is        0.330000000000000     
   GDM:         diagonal hessian shift is      0.000000000000000E+000
   GDM::PreWSS: input subspace size is                  9
   GDM::PreWSS: working subspace size set to            9
   GDM::PrEWSS: # of linearly dependent vectors =            0
   GDM::PrEWSS: Max dev from orthonormality =   5.807326841633653E-012
   GDM::BFGS:   lowest Hinv e-value    0.219228228046990     
   GDM::BFGS:   highest Hinv e-value    2.60744803172292     
   GDM::      : max scaling in EWCs is          2.82842712474619     
   GDM::      : max rotation in step is        0.340319475012671     
   GDM::        grad.step =  -0.408539376204540     
   ------- Leaving GDM -- hopefully with a step in the right direction! --------
 
    9    -317.6418734429      4.59E-01  Gap = 0.00 eV  Descent step
 
   ------------------- Entering Geometric Direct Minimization ------------------
   GDM::trust : actual energy change is       -0.647716735796280     
   GDM::trust : predicted energy change was   -0.167589045333263     
   GDM::trust : updated trust radius is        0.330000000000000     
   GDM:         diagonal hessian shift is      0.000000000000000E+000
   GDM::PreWSS: input subspace size is                 10
   GDM::PreWSS: working subspace size set to           10
   GDM::PrEWSS: # of linearly dependent vectors =            0
   GDM::PrEWSS: Max dev from orthonormality =   3.131245263077176E-012
   GDM::BFGS:   lowest Hinv e-value    0.209352808086846     
   GDM::BFGS:   highest Hinv e-value    2.94422766516908     
   GDM::      : max scaling in EWCs is          2.82842712474619     
   GDM::      : max rotation in step is        0.341296906757491     
   GDM::        grad.step =  -0.236266974655539     
   ------- Leaving GDM -- hopefully with a step in the right direction! --------
 
   10    -318.2895901787      2.62E-01  Gap = 0.00 eV  Descent step
 
   ------------------- Entering Geometric Direct Minimization ------------------
   GDM::trust : actual energy change is       -0.352768687215701     
   GDM::trust : predicted energy change was   -0.161113739160180     
   GDM::trust : updated trust radius is        0.330000000000000     
   GDM:         diagonal hessian shift is      0.000000000000000E+000
   GDM::PreWSS: input subspace size is                 11
   GDM::PreWSS: working subspace size set to           11
   GDM::PrEWSS: # of linearly dependent vectors =            0
   GDM::PrEWSS: Max dev from orthonormality =   2.568837503824639E-012
   GDM::BFGS:   lowest Hinv e-value    0.210044914914974     
   GDM::BFGS:   highest Hinv e-value    3.03047440584177     
   GDM::      : max scaling in EWCs is          2.82842712474619     
   GDM::      : max rotation in step is        0.204857235476476     
   GDM::        grad.step =  -0.118544186941868     
   ------- Leaving GDM -- hopefully with a step in the right direction! --------
 
   11    -318.6423588660      1.04E-01  Gap = 0.00 eV  Descent step
 
   ------------------- Entering Geometric Direct Minimization ------------------
   GDM::trust : actual energy change is       -7.914721105942135E-002
   GDM::trust : predicted energy change was   -0.150043162068068     
   GDM::trust : updated trust radius is        0.330000000000000     
   GDM:         diagonal hessian shift is      0.000000000000000E+000
   GDM::PreWSS: input subspace size is                 12
   GDM::PreWSS: working subspace size set to           12
   GDM::PrEWSS: # of linearly dependent vectors =            0
   GDM::PrEWSS: Max dev from orthonormality =   2.533549758876319E-012
   GDM::BFGS:   lowest Hinv e-value    0.208005855924261     
   GDM::BFGS:   highest Hinv e-value    3.03654455987044     
   GDM::      : max scaling in EWCs is          2.82842712474619     
   GDM::      : max rotation in step is        0.124433223529989     
   GDM::        grad.step =  -7.045648595836188E-002
   ------- Leaving GDM -- hopefully with a step in the right direction! --------
 
   12    -318.7215060770      9.79E-02  Gap = 0.00 eV  Normal BFGS step
 
   ------------------- Entering Geometric Direct Minimization ------------------
   GDM::trust : actual energy change is       -1.381089564097238E-002
   GDM::trust : predicted energy change was   -0.105684728937543     
   GDM::trust : updated trust radius is        0.330000000000000     
   GDM:         diagonal hessian shift is      0.000000000000000E+000
   GDM::PreWSS: input subspace size is                 13
   GDM::PreWSS: working subspace size set to           13
   GDM::PrEWSS: # of linearly dependent vectors =            0
   GDM::PrEWSS: Max dev from orthonormality =   3.226099942743588E-012
   GDM::BFGS:   lowest Hinv e-value    0.199007357814891     
   GDM::BFGS:   highest Hinv e-value    3.09167685404888     
   GDM::      : max scaling in EWCs is          2.82842712474619     
   GDM::      : max rotation in step is        6.784516850119451E-002
   GDM::        grad.step =  -3.708002533310023E-002
   ------- Leaving GDM -- hopefully with a step in the right direction! --------
 
   13    -318.7353169727      8.84E-02  Gap = 0.00 eV  Normal BFGS step
 
   ------------------- Entering Geometric Direct Minimization ------------------
   GDM::trust : actual energy change is       -2.249470711694812E-002
   GDM::trust : predicted energy change was   -5.562003799965035E-002
   GDM::trust : updated trust radius is        0.330000000000000     
   GDM:         diagonal hessian shift is      0.000000000000000E+000
   GDM::PreWSS: input subspace size is                 14
   GDM::PreWSS: working subspace size set to           14
   GDM::PrEWSS: # of linearly dependent vectors =            0
   GDM::PrEWSS: Max dev from orthonormality =   4.232586503505331E-012
   GDM::BFGS:   lowest Hinv e-value    0.183169353093258     
   GDM::BFGS:   highest Hinv e-value    2.73595912680160     
   GDM::      : max scaling in EWCs is          2.82842712474619     
   GDM::      : max rotation in step is        0.112094173361675     
   GDM::        grad.step =  -1.884555557188456E-002
   ------- Leaving GDM -- hopefully with a step in the right direction! --------
 
   14    -318.7578116798      5.93E-02  Gap = 0.00 eV  Normal BFGS step
 
   ------------------- Entering Geometric Direct Minimization ------------------
   GDM::trust : actual energy change is        2.454940598738631E-003
   GDM::trust : predicted energy change was   -2.826833335782685E-002
   GDM::trust : updated trust radius is        0.108900000000000     
   GDM::search:  On step            1 .  The current bracket is:
       left   : x =  0.0000E+00, e =      -318.7578116798, g = -0.1035E+00
       current: x =  0.1821E+00, e =      -318.7553567392, g =  0.1240E+00
       right  : x =  0.1000E+04, e =      1000.0000000000, g =  0.1000E+04
       next   : x =  0.8055E-01
   GDM::      : max rotation in step is        4.958750623577874E-002
   ------- Leaving GDM -- hopefully with a step in the right direction! --------
 
   15    -318.7553567392      1.22E-02  Gap = 0.00 eV  Line search: overstep
 
   ------------------- Entering Geometric Direct Minimization ------------------
   GDM::trust : actual energy change is       -9.104996952714828E-003
   GDM::trust : predicted energy change was   -2.826833335782685E-002
   GDM::trust : updated trust radius is        0.108900000000000     
   GDM:         diagonal hessian shift is      0.000000000000000E+000
   GDM::PreWSS: input subspace size is                 15
   GDM::PreWSS: working subspace size set to           15
   GDM::PrEWSS: # of linearly dependent vectors =            0
   GDM::PrEWSS: Max dev from orthonormality =   1.466552573825552E-011
   GDM::BFGS:   lowest Hinv e-value    0.185919920125780     
   GDM::BFGS:   highest Hinv e-value    2.74117856146662     
   GDM::      : max scaling in EWCs is          2.82842712474619     
   GDM::      : max rotation in step is        0.140958772341798     
   GDM::        grad.step =  -4.823534565540081E-003
   ------- Leaving GDM -- hopefully with a step in the right direction! --------
 
   16    -318.7669166767      4.50E-02  Gap = 0.00 eV  Normal BFGS step
 
   ------------------- Entering Geometric Direct Minimization ------------------
   GDM::trust : actual energy change is       -7.162162867814459E-003
   GDM::trust : predicted energy change was   -7.235301848310122E-003
   GDM::trust : updated trust radius is        0.330000000000000     
   GDM:         diagonal hessian shift is      0.000000000000000E+000
   GDM::PreWSS: input subspace size is                 16
   GDM::PreWSS: working subspace size set to           16
   GDM::PrEWSS: # of linearly dependent vectors =            0
   GDM::PrEWSS: Max dev from orthonormality =   5.712194606211085E-012
   GDM::BFGS:   lowest Hinv e-value    0.159787702153651     
   GDM::BFGS:   highest Hinv e-value    6.30402453597243     
   GDM::      : max scaling in EWCs is          2.82842712474619     
   GDM::      : max rotation in step is        0.739533155250436     
   GDM::        grad.step =  -1.528906562349717E-002
   ------- Leaving GDM -- hopefully with a step in the right direction! --------
 
   17    -318.7740788396      5.70E-02  Gap = 0.00 eV  Normal BFGS step
 
   ------------------- Entering Geometric Direct Minimization ------------------
   GDM::trust : actual energy change is       -3.194610386100294E-002
   GDM::trust : predicted energy change was   -2.293359843524576E-002
   GDM::trust : updated trust radius is        0.330000000000000     
   GDM:         diagonal hessian shift is      0.000000000000000E+000
   GDM::PreWSS: input subspace size is                 17
   GDM::PreWSS: working subspace size set to           17
   GDM::PrEWSS: # of linearly dependent vectors =            0
   GDM::PrEWSS: Max dev from orthonormality =   1.070888516752078E-011
   GDM::BFGS:   lowest Hinv e-value    0.103094472246892     
   GDM::BFGS:   highest Hinv e-value    52.5972653832555     
   GDM::trust : dogleg step length is          0.330000000000000     
   GDM::      : max scaling in EWCs is          2.82842712474619     
   GDM::      : max rotation in step is        0.816422749502448     
   GDM::        grad.step =  -5.732502038074195E-002
   ------- Leaving GDM -- hopefully with a step in the right direction! --------
 
   18    -318.8060249435      1.08E-01  Gap = 0.00 eV  Dog-leg BFGS step
 
   ------------------- Entering Geometric Direct Minimization ------------------
   GDM::trust : actual energy change is        5.373728450456383E-002
   GDM::trust : predicted energy change was   -0.244269739835402     
   GDM::trust : updated trust radius is        0.108900000000000     
   GDM::search:  On step            1 .  The current bracket is:
       left   : x =  0.0000E+00, e =      -318.8060249435, g = -0.6789E-01
       current: x =  0.8444E+00, e =      -318.7522876590, g =  0.1434E+00
       right  : x =  0.1000E+04, e =      1000.0000000000, g =  0.1000E+04
       next   : x =  0.2179E+00
   GDM::      : max rotation in step is        0.210699079236925     
   ------- Leaving GDM -- hopefully with a step in the right direction! --------
 
   19    -318.7522876590      3.09E-02  Gap = 0.00 eV  Line search: overstep
 
   ------------------- Entering Geometric Direct Minimization ------------------
   GDM::trust : actual energy change is       -2.124158436731705E-002
   GDM::trust : predicted energy change was   -0.244269739835402     
   GDM::trust : updated trust radius is        0.108900000000000     
   GDM:         diagonal hessian shift is      0.000000000000000E+000
   GDM::PreWSS: input subspace size is                 18
   GDM::PreWSS: working subspace size set to           18
   GDM::PrEWSS: # of linearly dependent vectors =            0
   GDM::PrEWSS: Max dev from orthonormality =   1.322491421928973E-011
   GDM::BFGS:   lowest Hinv e-value    0.181572666970864     
   GDM::BFGS:   highest Hinv e-value    36.6235835377457     
   GDM::      : max scaling in EWCs is          2.52080003091767     
   GDM::      : max rotation in step is        0.102538964944905     
   GDM::        grad.step =  -1.379559783981263E-002
   ------- Leaving GDM -- hopefully with a step in the right direction! --------
 
   20    -318.8272665278      5.18E-02  Gap = 0.00 eV  Descent step
 
   ------------------- Entering Geometric Direct Minimization ------------------
   GDM::trust : actual energy change is       -1.638727195762613E-002
   GDM::trust : predicted energy change was   -1.957352593659538E-002
   GDM::trust : updated trust radius is        0.330000000000000     
   GDM:         diagonal hessian shift is      0.000000000000000E+000
   GDM::PreWSS: input subspace size is                 19
   GDM::PreWSS: working subspace size set to           18
   GDM::PrEWSS: # of linearly dependent vectors =            0
   GDM::PrEWSS: Max dev from orthonormality =   8.359681002989561E-012
   GDM::BFGS:   lowest Hinv e-value    0.239424788290921     
   GDM::BFGS:   highest Hinv e-value    40.4335152006174     
   GDM::trust : dogleg step length is          0.330000000000000     
   GDM::      : max scaling in EWCs is          2.43473757757249     
   GDM::      : max rotation in step is        0.769001012958846     
   GDM::        grad.step =  -1.091115055391779E-002
   ------- Leaving GDM -- hopefully with a step in the right direction! --------
 
   21    -318.8436537998      2.99E-02  Gap = 0.00 eV  Dog-leg BFGS step
 
   ------------------- Entering Geometric Direct Minimization ------------------
   GDM::trust : actual energy change is        6.738793212286964E-002
   GDM::trust : predicted energy change was   -1.422431349622928E-002
   GDM::trust : updated trust radius is        0.108900000000000     
   GDM::search:  On step            1 .  The current bracket is:
       left   : x =  0.0000E+00, e =      -318.8436537998, g = -0.1399E-01
       current: x =  0.7801E+00, e =      -318.7762658677, g =  0.7800E-01
       right  : x =  0.1000E+04, e =      1000.0000000000, g =  0.1000E+04
       next   : x =  0.7801E-01
   GDM::      : max rotation in step is        7.690010129588457E-002
   ------- Leaving GDM -- hopefully with a step in the right direction! --------
 
   22    -318.7762658677      6.29E-03  Gap = 0.00 eV  Line search: overstep
 
   ------------------- Entering Geometric Direct Minimization ------------------
   GDM::trust : actual energy change is       -1.218855576837541E-003
   GDM::trust : predicted energy change was   -1.422431349622928E-002
   GDM::trust : updated trust radius is        0.108900000000000     
   GDM:         diagonal hessian shift is      0.000000000000000E+000
   GDM::PreWSS: input subspace size is                 19
   GDM::PreWSS: working subspace size set to           18
   GDM::PrEWSS: # of linearly dependent vectors =            0
   GDM::PrEWSS: Max dev from orthonormality =   1.142241162765956E-010
   GDM::BFGS:   lowest Hinv e-value    0.250894700432316     
   GDM::BFGS:   highest Hinv e-value    2.64225910698374     
   GDM::      : max scaling in EWCs is          2.39906393058300     
   GDM::      : max rotation in step is       -6.712492299972575E-002
   GDM::        grad.step =  -2.697019318179430E-003
   ------- Leaving GDM -- hopefully with a step in the right direction! --------
 
   23    -318.8448726554      1.55E-02  Gap = 0.00 eV  Normal BFGS step
 
   ------------------- Entering Geometric Direct Minimization ------------------
   GDM::trust : actual energy change is        1.410331569104528E-003
   GDM::trust : predicted energy change was   -4.045528977269145E-003
   GDM::trust : updated trust radius is        0.108900000000000     
   GDM::search:  On step            1 .  The current bracket is:
       left   : x =  0.0000E+00, e =      -318.8448726554, g = -0.2790E-01
       current: x =  0.9667E-01, e =      -318.8434623238, g =  0.4253E-01
       right  : x =  0.1000E+04, e =      1000.0000000000, g =  0.1000E+04
       next   : x =  0.3174E-01
   GDM::      : max rotation in step is       -2.203819676352030E-002
   ------- Leaving GDM -- hopefully with a step in the right direction! --------
 
   24    -318.8434623238      3.07E-03  Gap = 0.00 eV  Line search: overstep
 
   ------------------- Entering Geometric Direct Minimization ------------------
   GDM::trust : actual energy change is       -1.038372890604933E-003
   GDM::trust : predicted energy change was   -4.045528977269145E-003
   GDM::trust : updated trust radius is        0.108900000000000     
   GDM:         diagonal hessian shift is      0.000000000000000E+000
   GDM::PreWSS: input subspace size is                 19
   GDM::PreWSS: working subspace size set to           18
   GDM::PrEWSS: # of linearly dependent vectors =            0
   GDM::PrEWSS: Max dev from orthonormality =   1.510300218221516E-011
   GDM::BFGS:   lowest Hinv e-value    0.241379227093417     
   GDM::BFGS:   highest Hinv e-value    2.60776043952704     
   GDM::      : max scaling in EWCs is          2.38922356334026     
   GDM::      : max rotation in step is        3.190845619708842E-002
   GDM::        grad.step =  -4.928174775715825E-004
   ------- Leaving GDM -- hopefully with a step in the right direction! --------
 
   25    -318.8459110283      7.85E-03  Gap = 0.00 eV  Normal BFGS step
 
   ------------------- Entering Geometric Direct Minimization ------------------
   GDM::trust : actual energy change is       -5.937285880008858E-005
   GDM::trust : predicted energy change was   -7.392262163573738E-004
   GDM::trust : updated trust radius is        0.330000000000000     
   GDM:         diagonal hessian shift is      0.000000000000000E+000
   GDM::PreWSS: input subspace size is                 19
   GDM::PreWSS: working subspace size set to           18
   GDM::PrEWSS: # of linearly dependent vectors =            0
   GDM::PrEWSS: Max dev from orthonormality =   7.595701845275471E-012
   GDM::BFGS:   lowest Hinv e-value    0.242081257112314     
   GDM::BFGS:   highest Hinv e-value    2.62549598831678     
   GDM::      : max scaling in EWCs is          2.39127217611969     
   GDM::      : max rotation in step is       -3.956727488851130E-003
   GDM::        grad.step =  -3.855644443506950E-004
   ------- Leaving GDM -- hopefully with a step in the right direction! --------
 
   26    -318.8459704011      7.34E-03  Gap = 0.00 eV  Normal BFGS step
 
   ------------------- Entering Geometric Direct Minimization ------------------
   GDM::trust : actual energy change is       -9.826979948002190E-005
   GDM::trust : predicted energy change was   -5.783466665260427E-004
   GDM::trust : updated trust radius is        0.330000000000000     
   GDM:         diagonal hessian shift is      0.000000000000000E+000
   GDM::PreWSS: input subspace size is                 19
   GDM::PreWSS: working subspace size set to           18
   GDM::PrEWSS: # of linearly dependent vectors =            0
   GDM::PrEWSS: Max dev from orthonormality =   1.663447157795872E-011
   GDM::BFGS:   lowest Hinv e-value    0.228946373850135     
   GDM::BFGS:   highest Hinv e-value    2.77678435586801     
   GDM::      : max scaling in EWCs is          2.39370740429466     
   GDM::      : max rotation in step is       -1.540454928136775E-002
   GDM::        grad.step =  -2.385958389769866E-004
   ------- Leaving GDM -- hopefully with a step in the right direction! --------
 
   27    -318.8460686709      5.05E-03  Gap = -12.58 eV  Normal BFGS step
 
   ------------------- Entering Geometric Direct Minimization ------------------
   GDM::trust : actual energy change is       -1.345391994505007E-004
   GDM::trust : predicted energy change was   -3.578937584654798E-004
   GDM::trust : updated trust radius is        0.330000000000000     
   GDM:         diagonal hessian shift is      0.000000000000000E+000
   GDM::PreWSS: input subspace size is                 19
   GDM::PreWSS: working subspace size set to           18
   GDM::PrEWSS: # of linearly dependent vectors =            0
   GDM::PrEWSS: Max dev from orthonormality =   5.569192676468937E-012
   GDM::BFGS:   lowest Hinv e-value    0.243377130674227     
   GDM::BFGS:   highest Hinv e-value    2.58593023578143     
   GDM::      : max scaling in EWCs is          2.38923334158118     
   GDM::      : max rotation in step is        5.717527626917847E-003
   GDM::        grad.step =  -6.551548384902608E-005
   ------- Leaving GDM -- hopefully with a step in the right direction! --------
 
   28    -318.8462032101      2.00E-03  Gap = -12.58 eV  Normal BFGS step
 
   ------------------- Entering Geometric Direct Minimization ------------------
   GDM::trust : actual energy change is       -4.357442412583623E-005
   GDM::trust : predicted energy change was   -9.827322577353912E-005
   GDM::trust : updated trust radius is        0.330000000000000     
   GDM:         diagonal hessian shift is      0.000000000000000E+000
   GDM::PreWSS: input subspace size is                 19
   GDM::PreWSS: working subspace size set to           18
   GDM::PrEWSS: # of linearly dependent vectors =            0
   GDM::PrEWSS: Max dev from orthonormality =   1.243188885169388E-011
   GDM::BFGS:   lowest Hinv e-value    0.243244613348368     
   GDM::BFGS:   highest Hinv e-value    1.97984716222277     
   GDM::      : max scaling in EWCs is          2.39054087194587     
   GDM::      : max rotation in step is        1.066962579846894E-003
   GDM::        grad.step =  -1.288890927681705E-005
   ------- Leaving GDM -- hopefully with a step in the right direction! --------
 
   29    -318.8462467845      8.27E-04  Gap = -12.58 eV  Normal BFGS step
 
   ------------------- Entering Geometric Direct Minimization ------------------
   GDM::trust : actual energy change is       -1.074874575124340E-005
   GDM::trust : predicted energy change was   -1.933336391522558E-005
   GDM::trust : updated trust radius is        0.330000000000000     
   GDM:         diagonal hessian shift is      0.000000000000000E+000
   GDM::PreWSS: input subspace size is                 19
   GDM::PreWSS: working subspace size set to           18
   GDM::PrEWSS: # of linearly dependent vectors =            0
   GDM::PrEWSS: Max dev from orthonormality =   9.169665027286555E-012
   GDM::BFGS:   lowest Hinv e-value    0.243652545155996     
   GDM::BFGS:   highest Hinv e-value    2.00141717729122     
   GDM::      : max scaling in EWCs is          2.39014050322888     
   GDM::      : max rotation in step is       -8.817613282281423E-004
   GDM::        grad.step =  -2.069436224166956E-006
   ------- Leaving GDM -- hopefully with a step in the right direction! --------
 
   30    -318.8462575333      6.22E-04  Gap = -12.58 eV  Normal BFGS step
 
   ------------------- Entering Geometric Direct Minimization ------------------
   GDM::trust : actual energy change is        5.602262831416738E-007
   GDM::trust : predicted energy change was   -3.104154336250435E-006
   GDM::trust : updated trust radius is        0.108900000000000     
   GDM::search:  On step            1 .  The current bracket is:
       left   : x =  0.0000E+00, e =      -318.8462575333, g = -0.1081E-02
       current: x =  0.1914E-02, e =      -318.8462569731, g =  0.1374E-02
       right  : x =  0.1000E+04, e =      1000.0000000000, g =  0.1000E+04
       next   : x =  0.7531E-03
   GDM::      : max rotation in step is       -3.469549473807677E-004
   ------- Leaving GDM -- hopefully with a step in the right direction! --------
 
   31    -318.8462569731      3.93E-05  Gap = -12.58 eV  Line search: overstep
 
   ------------------- Entering Geometric Direct Minimization ------------------
   GDM::trust : actual energy change is       -9.010820463117852E-007
   GDM::trust : predicted energy change was   -3.104154336250435E-006
   GDM::trust : updated trust radius is        0.108900000000000     
   GDM:         diagonal hessian shift is      0.000000000000000E+000
   GDM::PreWSS: input subspace size is                 19
   GDM::PreWSS: working subspace size set to           18
   GDM::PrEWSS: # of linearly dependent vectors =            0
   GDM::PrEWSS: Max dev from orthonormality =   5.626638044375909E-012
   GDM::BFGS:   lowest Hinv e-value    0.246102881243516     
   GDM::BFGS:   highest Hinv e-value    2.10074373977844     
   GDM::      : max scaling in EWCs is          2.39011509403581     
   GDM::      : max rotation in step is       -4.870538612274136E-004
   GDM::        grad.step =  -3.475139248446960E-007
   ------- Leaving GDM -- hopefully with a step in the right direction! --------
 
   32    -318.8462584344      1.31E-04  Gap = -12.58 eV  Normal BFGS step
 
   ------------------- Entering Geometric Direct Minimization ------------------
   GDM::trust : actual energy change is       -2.381904664616741E-007
   GDM::trust : predicted energy change was   -5.212708872670442E-007
   GDM::trust : updated trust radius is        0.330000000000000     
   GDM:         diagonal hessian shift is      0.000000000000000E+000
   GDM::PreWSS: input subspace size is                 19
   GDM::PreWSS: working subspace size set to           18
   GDM::PrEWSS: # of linearly dependent vectors =            0
   GDM::PrEWSS: Max dev from orthonormality =   4.607543513390766E-011
   GDM::BFGS:   lowest Hinv e-value    0.246474348031254     
   GDM::BFGS:   highest Hinv e-value    2.06361767150208     
   GDM::      : max scaling in EWCs is          2.39026824513663     
   GDM::      : max rotation in step is        1.148592341779836E-004
   GDM::        grad.step =  -3.863462146657162E-008
   ------- Leaving GDM -- hopefully with a step in the right direction! --------
 
   33    -318.8462586726      4.96E-05  Gap = -12.58 eV  Normal BFGS step
 
   ------------------- Entering Geometric Direct Minimization ------------------
   GDM::trust : actual energy change is       -3.740143483810243E-008
   GDM::trust : predicted energy change was   -5.795193219985742E-008
   GDM::trust : updated trust radius is        0.330000000000000     
   GDM:         diagonal hessian shift is      0.000000000000000E+000
   GDM::PreWSS: input subspace size is                 19
   GDM::PreWSS: working subspace size set to           18
   GDM::PrEWSS: # of linearly dependent vectors =            0
   GDM::PrEWSS: Max dev from orthonormality =   4.322599916894987E-011
   GDM::BFGS:   lowest Hinv e-value    0.243134213132656     
   GDM::BFGS:   highest Hinv e-value    1.99406582890748     
   GDM::      : max scaling in EWCs is          2.39023229099022     
   GDM::      : max rotation in step is       -2.058143212504416E-005
   GDM::        grad.step =  -1.610883411672341E-009
   ------- Leaving GDM -- hopefully with a step in the right direction! --------
 
   34    -318.8462587100      1.10E-05  Gap = -12.58 eV  Normal BFGS step
 
   ------------------- Entering Geometric Direct Minimization ------------------
   GDM::trust : actual energy change is       -1.020453055389225E-009
   GDM::trust : predicted energy change was   -2.416325117508511E-009
   GDM::trust : updated trust radius is        0.330000000000000     
   GDM:         diagonal hessian shift is      0.000000000000000E+000
   GDM::PreWSS: input subspace size is                 19
   GDM::PreWSS: working subspace size set to           18
   GDM::PrEWSS: # of linearly dependent vectors =            0
   GDM::PrEWSS: Max dev from orthonormality =   1.734988888668632E-011
   GDM::BFGS:   lowest Hinv e-value    0.249507872716838     
   GDM::BFGS:   highest Hinv e-value    1.96091142822049     
   GDM::      : max scaling in EWCs is          2.39024033097443     
   GDM::      : max rotation in step is       -6.212890342342605E-006
   GDM::        grad.step =  -3.533790025203243E-010
   ------- Leaving GDM -- hopefully with a step in the right direction! --------
 
   35    -318.8462587110      5.12E-06  Gap = -12.58 eV  Normal BFGS step
 
   ------------------- Entering Geometric Direct Minimization ------------------
   GDM::trust : actual energy change is       -3.242917046009097E-010
   GDM::trust : predicted energy change was   -5.300685037804864E-010
   GDM::trust : updated trust radius is        0.330000000000000     
   GDM:         diagonal hessian shift is      0.000000000000000E+000
   GDM::PreWSS: input subspace size is                 19
   GDM::PreWSS: working subspace size set to           18
   GDM::PrEWSS: # of linearly dependent vectors =            0
   GDM::PrEWSS: Max dev from orthonormality =   1.094153066760750E-011
   GDM::BFGS:   lowest Hinv e-value    0.251649236311773     
   GDM::BFGS:   highest Hinv e-value    2.14186075672665     
   GDM::      : max scaling in EWCs is          2.39024165539358     
   GDM::      : max rotation in step is       -3.507036487030564E-006
   GDM::        grad.step =  -3.507097366413460E-011
   ------- Leaving GDM -- hopefully with a step in the right direction! --------
 
   36    -318.8462587113      1.33E-06  Gap = -12.58 eV  Normal BFGS step
 
   ------------------- Entering Geometric Direct Minimization ------------------
   GDM::trust : actual energy change is       -2.364686224609613E-011
   GDM::trust : predicted energy change was   -5.260646049620191E-011
   GDM::trust : updated trust radius is        0.330000000000000     
   GDM:         diagonal hessian shift is      0.000000000000000E+000
   GDM::PreWSS: input subspace size is                 19
   GDM::PreWSS: working subspace size set to           18
   GDM::PrEWSS: # of linearly dependent vectors =            0
   GDM::PrEWSS: Max dev from orthonormality =   1.232878816398442E-011
   GDM::BFGS:   lowest Hinv e-value    0.254660111037610     
   GDM::BFGS:   highest Hinv e-value    2.37152040765085     
   GDM::      : max scaling in EWCs is          2.39024157853360     
   GDM::      : max rotation in step is       -5.783810338802582E-007
   GDM::        grad.step =  -4.416708710289200E-012
   ------- Leaving GDM -- hopefully with a step in the right direction! --------
 
   37    -318.8462587113      4.54E-07  Gap = -12.58 eV  Normal BFGS step
 
   ------------------- Entering Geometric Direct Minimization ------------------
   GDM::trust : actual energy change is       -4.263256414560601E-012
   GDM::trust : predicted energy change was   -6.625063065433797E-012
   GDM::trust : updated trust radius is        0.330000000000000     
   GDM:         diagonal hessian shift is      0.000000000000000E+000
   GDM::PreWSS: input subspace size is                 19
   GDM::PreWSS: working subspace size set to           13
   GDM::PrEWSS: # of linearly dependent vectors =            0
   GDM::PrEWSS: Max dev from orthonormality =   5.097523098074319E-012
   GDM::BFGS:   lowest Hinv e-value    0.256339140255813     
   GDM::BFGS:   highest Hinv e-value    2.06599748042709     
   GDM::      : max scaling in EWCs is          2.39024180820021     
   GDM::      : max rotation in step is       -1.990563030575140E-007
   GDM::        grad.step =  -9.013570676141032E-014
   ------- Leaving GDM -- hopefully with a step in the right direction! --------
 
   38    -318.8462587113      8.78E-08  Gap = -12.58 eV  Normal BFGS step
 
   ------------------- Entering Geometric Direct Minimization ------------------
   GDM::trust : actual energy change is        4.547473508864641E-013
   GDM::trust : predicted energy change was   -1.352035601421155E-013
   GDM::trust : updated trust radius is        0.108900000000000     
   GDM::WARNING energy changes are now smaller than effective accuracy.
   GDM::        calculation will continue, but THRESH should be increased
   GDM::        or SCF_CONVERGENCE decreased.
   GDM::        effective_thresh =   2.400000000000000E-010
   GDM:         diagonal hessian shift is      0.000000000000000E+000
   GDM::PreWSS: input subspace size is                 14
   GDM::PreWSS: working subspace size set to           11
   GDM::PrEWSS: # of linearly dependent vectors =            0
   GDM::PrEWSS: Max dev from orthonormality =   4.426736754936655E-013
   GDM::BFGS:   lowest Hinv e-value    0.312370388831164     
   GDM::BFGS:   highest Hinv e-value    1.77626776294536     
   GDM::      : max scaling in EWCs is          2.39024181541637     
   GDM::      : max rotation in step is        5.460249475652765E-008
   GDM::        grad.step =  -1.783049648711473E-014
   ------- Leaving GDM -- hopefully with a step in the right direction! --------
 
   39    -318.8462587113      2.35E-08  Gap = -12.58 eV  Normal BFGS step
 
   ------------------- Entering Geometric Direct Minimization ------------------
   GDM::trust : actual energy change is       -5.115907697472721E-013
   GDM::trust : predicted energy change was   -2.674574473067210E-014
   GDM::trust : updated trust radius is        0.330000000000000     
   GDM:         diagonal hessian shift is      0.000000000000000E+000
   GDM::PreWSS: input subspace size is                 12
   GDM::PreWSS: working subspace size set to           12
   GDM::PrEWSS: # of linearly dependent vectors =            1
   GDM::PrEWSS: Max dev from orthonormality =   7.121412834432128E-013
   GDM::BFGS:   lowest Hinv e-value    0.239811974352858     
   GDM::BFGS:   highest Hinv e-value    1.70818154737188     
   GDM::      : max scaling in EWCs is          2.39024180518934     
   GDM::      : max rotation in step is        3.319129542562931E-008
   GDM::        grad.step =  -1.900529566214807E-014
   ------- Leaving GDM -- hopefully with a step in the right direction! --------
 
   40    -318.8462587113      5.64E-08  Gap = 119.55 eV  Normal BFGS step
 
   ------------------- Entering Geometric Direct Minimization ------------------
   GDM::trust : actual energy change is        2.273736754432321E-013
   GDM::trust : predicted energy change was   -2.850794349322211E-014
   GDM::trust : updated trust radius is        0.108900000000000     
   GDM::WARNING energy changes are now smaller than effective accuracy.
   GDM::        calculation will continue, but THRESH should be increased
   GDM::        or SCF_CONVERGENCE decreased.
   GDM::        effective_thresh =   2.400000000000000E-010
   GDM:         diagonal hessian shift is      0.000000000000000E+000
   GDM::PreWSS: input subspace size is                 13
   GDM::PreWSS: working subspace size set to           13
   GDM::PrEWSS: # of linearly dependent vectors =            2
   GDM::PrEWSS: Max dev from orthonormality =   9.078987561750296E-013
   GDM::BFGS:   lowest Hinv e-value    0.227308098755366     
   GDM::BFGS:   highest Hinv e-value    1.67440134532723     
   GDM::      : max scaling in EWCs is          2.39024182258210     
   GDM::      : max rotation in step is        1.951947799996703E-008
   GDM::        grad.step =  -5.089352077569706E-015
   ------- Leaving GDM -- hopefully with a step in the right direction! --------
 
   41    -318.8462587113      1.83E-08  Gap = -12.58 eV  Normal BFGS step
 
   ------------------- Entering Geometric Direct Minimization ------------------
   GDM::trust : actual energy change is       -1.136868377216160E-013
   GDM::trust : predicted energy change was   -7.634028116354559E-015
   GDM::trust : updated trust radius is        0.330000000000000     
   GDM:         diagonal hessian shift is      0.000000000000000E+000
   GDM::PreWSS: input subspace size is                 14
   GDM::PreWSS: working subspace size set to           13
   GDM::PrEWSS: # of linearly dependent vectors =            1
   GDM::PrEWSS: Max dev from orthonormality =   3.970629033900330E-011
   GDM::BFGS:   lowest Hinv e-value    0.249675574262814     
   GDM::BFGS:   highest Hinv e-value    1.81896991479258     
   GDM::      : max scaling in EWCs is          2.39024179949062     
   GDM::      : max rotation in step is       -1.155654639036748E-008
   GDM::        grad.step =  -1.948159801207179E-015
   ------- Leaving GDM -- hopefully with a step in the right direction! --------
 
   42    -318.8462587113      1.13E-08  Gap = -12.58 eV  Normal BFGS step
 
   ------------------- Entering Geometric Direct Minimization ------------------
   GDM::trust : actual energy change is        3.979039320256561E-013
   GDM::trust : predicted energy change was   -2.922239701810769E-015
   GDM::trust : updated trust radius is        0.108900000000000     
   GDM::WARNING energy changes are now smaller than effective accuracy.
   GDM::        calculation will continue, but THRESH should be increased
   GDM::        or SCF_CONVERGENCE decreased.
   GDM::        effective_thresh =   2.400000000000000E-010
   GDM:         diagonal hessian shift is      0.000000000000000E+000
   GDM::PreWSS: input subspace size is                 14
   GDM::PreWSS: working subspace size set to           14
   GDM::PrEWSS: # of linearly dependent vectors =            2
   GDM::PrEWSS: Max dev from orthonormality =   1.059036192074814E-011
   GDM::BFGS:   lowest Hinv e-value    0.238208805578387     
   GDM::BFGS:   highest Hinv e-value    1.71613035352832     
   GDM::      : max scaling in EWCs is          2.39024182657395     
   GDM::      : max rotation in step is       -8.782503662206510E-009
   GDM::        grad.step =  -1.446379487557738E-015
   ------- Leaving GDM -- hopefully with a step in the right direction! --------
 
   43    -318.8462587113      1.32E-08  Gap = -12.58 eV  Normal BFGS step
 
   ------------------- Entering Geometric Direct Minimization ------------------
   GDM::trust : actual energy change is       -5.115907697472721E-013
   GDM::trust : predicted energy change was   -2.169569231336606E-015
   GDM::trust : updated trust radius is        0.330000000000000     
   GDM:         diagonal hessian shift is      0.000000000000000E+000
   GDM::PreWSS: input subspace size is                 15
   GDM::PreWSS: working subspace size set to           14
   GDM::PrEWSS: # of linearly dependent vectors =            1
   GDM::PrEWSS: Max dev from orthonormality =   8.999185077684935E-011
   GDM::BFGS:   lowest Hinv e-value    0.249609818826431     
   GDM::BFGS:   highest Hinv e-value    1.77152988866585     
   GDM::      : max scaling in EWCs is          2.39024181152743     
   GDM::      : max rotation in step is       -4.896976834903040E-009
   GDM::        grad.step =  -2.829365321846771E-016
   ------- Leaving GDM -- hopefully with a step in the right direction! --------
 
   44    -318.8462587113      4.87E-09 Convergence criterion met
 ---------------------------------------
 One-Electron    Energy =  -872.7646969267
 Total Coulomb   Energy =   388.4325894956
 Alpha Exchange  Energy =    -3.5420742371
 Beta  Exchange  Energy =    -3.5420742371
 DFT   Exchange  Energy =   -28.4916810730
 DFT Correlation Energy =    -2.1050864115
 Nuclear Repu.   Energy =   203.1667646785
 Nuclear Attr.   Energy = -1145.4378449262
 Kinetic         Energy =   272.6731479994
 SCF time:  CPU 154.13 s  wall 14.03 s
 SCF   energy in the final basis set = -318.8462587113
 Total energy in the final basis set = -318.8462587113
 
 --------------------------------------------------------------
 
                    Orbital Energies (a.u.)
 --------------------------------------------------------------
 
 Alpha MOs
 -- Occupied --
-19.134 -19.127 -19.127  -2.042  -2.018  -1.308  -1.271  -1.253
 -1.243  -1.221  -1.184  -0.888  -0.842  -0.836  -0.375  -0.370
 -0.359  -0.336  -0.331  -0.324  -0.314  -0.305  -0.285  -0.202
 -- Virtual --
 -0.115  -0.104  -0.083  -0.071  -0.043  -0.029  -0.002   0.008
  0.021   0.023   0.039   0.043   0.048   0.053   0.055   0.056
  0.085   0.107   0.148   0.157   0.171   0.175   0.200   0.204
  0.219   0.222   0.225   0.235   0.237   0.245   0.259   0.268
  0.274   0.282   0.294   0.294   0.299   0.300   0.362   0.388
  0.395   0.399   0.568   0.623   1.076   1.160   1.182   1.185
  1.214   1.217   1.238   1.248   1.298   1.309   1.648   1.705
  1.757   1.785   1.800   1.814   1.818   1.832   1.833   1.842
  1.857   1.867   1.871   1.887   1.930   1.945   2.097   2.233
 14.960  17.442
 --------------------------------------------------------------
 
          Ground-State Mulliken Net Atomic Charges

     Atom                 Charge (a.u.)
  ----------------------------------------
      1 Zr                    0.937849
      2 Zr                    0.938010
      3 O                    -0.494509
      4 O                    -0.886527
      5 O                    -0.494823
  ----------------------------------------
  Sum of atomic charges =     0.000000

 -----------------------------------------------------------------
                    Cartesian Multipole Moments
 -----------------------------------------------------------------
    Charge (ESU x 10^10)
                 0.0000
    Dipole Moment (Debye)
         X       0.0461      Y       0.6725      Z       1.1687
       Tot       1.3492
    Quadrupole Moments (Debye-Ang)
        XX     -43.9608     XY      -4.4038     YY     -75.9660
        XZ       1.3374     YZ       7.3502     ZZ     -67.8504
    Octopole Moments (Debye-Ang^2)
       XXX      25.3636    XXY       1.3228    XYY       9.0988
       YYY     -24.0901    XXZ      -0.2720    XYZ      -3.8311
       YYZ      -4.5239    XZZ      17.6903    YZZ      13.7866
       ZZZ     -14.7970
    Hexadecapole Moments (Debye-Ang^3)
      XXXX    -326.9865   XXXY    -111.9606   XXYY    -137.0280
      XYYY    -134.0114   YYYY    -508.8631   XXXZ      67.4774
      XXYZ      33.6395   XYYZ      38.6530   YYYZ     106.0824
      XXZZ    -106.9778   XYZZ     -49.4341   YYZZ    -145.0037
      XZZZ      74.9833   YZZZ      88.0607   ZZZZ    -311.8833
 -----------------------------------------------------------------
Archival summary:
1\1\hpc0488\SP\ProcedureUnspecified\BasisUnspecified\r23(+,1)\liqiuy\FriJan1721:24:252020FriJan1721:24:252020\0\\#,ProcedureUnspecified,BasisUnspecified,\\56,1\Zr\O,1,1.71167\O,1,1.95714,2,116.829\Zr,3,1.95649,1,73.6992,2,95.2668,0\O,4,1.7118,3,116.705,1,95.1867,0\\\@

 Total job time:  14.91s(wall), 160.50s(cpu) 
 Fri Jan 17 21:24:25 2020

        *************************************************************
        *                                                           *
        *  Thank you very much for using Q-Chem.  Have a nice day.  *
        *                                                           *
        *************************************************************


0 sent ACK to 0 
now end server 0 ... 
cleanup process ... done

Running Job 2 of 2 ZrOx.in
qchem ZrOx.in_31692.1 /tmp/5733221.priya/ZrOx.save/ 1
/usr/usc/qchem/4.4/bin/mpi/mpirun_qchem -machinefile /usr/usc/qchem/4.4/bin/mpi/machines -np 1 /usr/usc/qchem/4.4/exe/qcprog.exe ZrOx.in_31692.1 /tmp/5733221.priya/ZrOx.save/

Process 0 of 1 is on hpc0488.hpcc.usc.edu - thread support 0
initial socket setup ...start
initial socket setup ...done 
now start server 0 ... 
Check license passed

                  Welcome to Q-Chem
     A Quantum Leap Into The Future Of Chemistry


 Q-Chem 4.4, Q-Chem, Inc., Pleasanton, CA (2016)

 Y. Shao,  Z. Gan,  E. Epifanovsky,  A. T. B. Gilbert,  M. Wormit,  
 J. Kussmann,  A. W. Lange,  A. Behn,  J. Deng,  X. Feng,  D. Ghosh,  
 M. Goldey,  P. R. Horn,  L. D. Jacobson,  I. Kaliman,  F.Rob,  
 R. Z. Khaliullin,  T. Kus,  A. Landau,  J. Liu,  E. I. Proynov,  Y. M. Rhee,  
 R. M. Richard,  M. A. Rohrdanz,  R. P. Steele,  E. J. Sundstrom,  
 H. L. Woodcock III,  P. M. Zimmerman,  D. Zuev,  B. Albrecht,  E. Alguire,  
 B. Austin,  S. A. Baeppler,  G. J. O. Beran,  Y. A. Bernard,  E. Berquist,  
 K. Brandhorst,  K. B. Bravaya,  S. T. Brown,  D. Casanova,  C.-M. Chang,  
 Y. Chen,  S. H. Chien,  K. D. Closser,  M. P. Coons,  D. L. Crittenden,  
 S. Dasgupta,  M. Diedenhofen,  R. A. DiStasio Jr.,  H. Do,  A. D. Dutoi,  
 R. G. Edgar,  P.-T. Fang,  S. Fatehi,  Q. Feng,  L. Fusti-Molnar,  
 A. Ghysels,  A. Golubeva-Zadorozhnaya,  J. Gomes,  A. Gunina,  
 M. W. D. Hanson-Heine,  P. H. P. Harbach,  A. W. Hauser,  E. G. Hohenstein,  
 Z. C. Holden,  K. Hui,  T.-C. Jagau,  H. Ji,  B. Kaduk,  K. Khistyaev,  
 Jaehoon Kim,  Jihan Kim,  R. A. King,  P. Klunzinger,  D. Kosenkov,  
 T. Kowalczyk,  C. M. Krauter,  A. Kunitsa,  K. U. Lao,  A. Laurent,  
 K. V. Lawler,  D. Lefrancois,  S. Lehtola,  S. V. Levchenko,  C. Y. Lin,  
 Y.-S. Lin,  F. Liu,  E. Livshits,  R. C. Lochan,  A. Luenser,  P. Manohar,  
 S. F. Manzer,  S.-P. Mao,  Y. Mao,  N. Mardirossian,  A. V. Marenich,  
 L. A. Martinez-Martinez,  S. A. Maurer,  N. J. Mayhall,  J.-M. Mewes,  
 A. F. Morrison,  K. Nanda,  C. M. Oana,  R. Olivares-Amaya,  D. P. O'Neill,  
 J. A. Parkhill,  T. M. Perrine,  R. Peverati,  P. A. Pieniazek,  F. Plasser,  
 A. Prociuk,  D. R. Rehn,  E. Rosta,  N. J. Russ,  N. Sergueev,  
 S. M. Sharada,  S. Sharma,  D. W. Small,  A. Sodt,  T. Stauch,  T. Stein,  
 D. Stuck,  Y.-C. Su,  A. J. W. Thom,  T. Tsuchimochi,  L. Vogt,  O. Vydrov,  
 T. Wang,  M. A. Watson,  J. Wenzel,  A. White,  C. F. Williams,  
 V. Vanovschi,  S. Yeganeh,  S. R. Yost,  Z.-Q. You,  I. Y. Zhang,  X. Zhang,  
 Y. Zhao,  B. R. Brooks,  G. K. L. Chan,  D. M. Chipman,  C. J. Cramer,  
 W. A. Goddard III,  M. S. Gordon,  W. J. Hehre,  A. Klamt,  
 H. F. Schaefer III,  M. W. Schmidt,  C. D. Sherrill,  D. G. Truhlar,  
 A. Warshel,  X. Xu,  A. Aspuru-Guzik,  R. Baer,  A. T. Bell,  N. A. Besley,  
 J.-D. Chai,  A. Dreuw,  B. D. Dunietz,  T. R. Furlani,  S. R. Gwaltney,  
 C.-P. Hsu,  Y. Jung,  J. Kong,  D. S. Lambrecht,  W. Liang,  C. Ochsenfeld,  
 V. A. Rassolov,  L. V. Slipchenko,  J. E. Subotnik,  T. Van Voorhis,  
 J. M. Herbert,  A. I. Krylov,  P. M. W. Gill,  M. Head-Gordon

 Contributors to earlier versions of Q-Chem not listed above: 
 R. D. Adamson,  J. Baker,  E. F. C. Byrd,  A. K. Chakraborty,  C.-L. Cheng,  
 H. Dachsel,  R. J. Doerksen,  G. Hawkins,  A. Heyden,  S. Hirata,  
 G. Kedziora,  F. J. Keil,  C. Kelley,  P. P. Korambath,  W. Kurlancheek,  
 A. M. Lee,  M. S. Lee,  D. Liotard,  I. Lotan,  P. E. Maslen,  N. Nair,  
 D. Neuhauser,  R. Olson,  B. Peters,  J. Ritchie,  N. E. Schultz,  
 N. Shenvi,  A. C. Simmonett,  K. S. Thanthiriwatte,  Q. Wu,  W. Zhang

 Please cite Q-Chem as follows:
 Y. Shao et al., Mol. Phys. 113, 184-215 (2015)
 DOI: 10.1080/00268976.2014.952696

 Q-Chem 4.4.1 for Intel X86 Linux

 Parts of Q-Chem use Armadillo 5.200.1 (Boston Tea Smuggler).
 http://arma.sourceforge.net/

 Q-Chem begins on Fri Jan 17 21:24:28 2020  

Host: 
0

     Scratch files written to /tmp/5733221.priya/ZrOx.save//
 Jul2716 11668_ 21447  21445 5558   
 Parallel job on  1  processors
Processing $rem in /usr/usc/qchem/4.4/config/preferences.
 MEM_TOTAL  2000 
The previous job contains 0 fragments, simply inherited here

Checking the input file for inconsistencies... 	...done.

--------------------------------------------------------------
User input:
--------------------------------------------------------------

$comment
-----------------------
A GEOMETRY OPTIMIZATION
-----------------------
$end

$molecule
READ
$end

$rem
JOBTYPE   OPT
METHOD   B3LYP
BASIS   GEN
ECP   GEN
SCF_GUESS   READ
MAX_SCF_CYCLES   200
SCF_CONVERGENCE 8
SCF_PRINT 1
PDB_PRINT 2
THRESH 14
VARTHRESH 14
INCDFT FALSE
SYMMETRY False
Sym_ignore True
SCF_ALGORITHM GDM
XC_GRID 000128000302
GEOM_OPT_MAX_CYCLES 200
DFT_D           EMPIRICAL_GRIMME3
DFT_D3_S6       1000
DFT_D3_RS6     1261
DFT_D3_S8      1703
DFT_D3_3BODY    FALSE
SCF_PRINT 1
PDB_PRINT 2
$end

$basis
O
6-31+G**
****
S
6-31+G**
****
Zr
LanL2DZ
****
$end

$ecp
Zr
LanL2DZ
****
$end

--------------------------------------------------------------
 ----------------------------------------------------------------
             Standard Nuclear Orientation (Angstroms)
    I     Atom           X                Y                Z
 ----------------------------------------------------------------
    1      Zr      0.8295700000     0.5321500000    -0.2390000000
    2      Zr     -1.2076700000    -0.4347300000     0.4117900000
    3      O       0.5973300000     2.1951200000    -0.5712800000
    4      O      -0.2511900000    -0.7336900000    -1.2685700000
    5      O      -0.9291800000    -1.5647800000     1.6670600000
 ----------------------------------------------------------------
 Nuclear Repulsion Energy =   203.1667646767 hartrees
 There are       24 alpha and       24 beta electrons

 Q-Chem warning in module /home/scratch/svnadmin/11668_zgan/qchem/forms1/BasisType.C, line 1419:

 Setting pure/cartesian flag to 2111 for general basis


 Requested basis set is non-standard
 There are 31 shells and 98 basis functions

 Total QAlloc Memory Limit   2000 MB
 Mega-Array Size        61 MB
 MEM_STATIC part        62 MB
 A cutoff of  1.0D-14 yielded    486 shell pairs
 There are      4916 function pairs (      5655 Cartesian)
 
 -------------------------------------------------------
 OpenMP Integral Computing Module                       
 Release: version 1.0, May 2013, Q-Chem Inc. Pittsburgh 
 -------------------------------------------------------
 Integral Job Info:
 Integral job number is                      11
 Integral operator is                         1
 short-range coefficients                     0
 long-range coefficients              100000000
 Omega coefficients                           0
 if combine SR and LR in K                    0
 Integral screening is                        0
 Integral computing path is                   2
 max size of driver memory is            800000
 size of driver memory is                593474
 size of scratch memory is             11771240
 max col of scratch BK array               1296
 max len of scratch array in speh3          155
 max len of scratch index in speh4           18
 max int batch size is                      520
 min int batch size is                       52
 fixed nKL is                                52
 max L of basis functions is                  2
 order of int derivative is                   0
 number of shells is                         31
 number of basis is                         105
 number of cartesian basis is               105
 number of contracted shell pairs           486
 number of primitive shell pairs           2332
 maxK2 (contraction) of shell pair           36
 max number of K2 of shell pair               1
 max number of CS2 of shell pair             30
 max number of PS2 of shell pair            144
 mem total for path MDJ                   23422
 -------------------------------------------------------
 Requested basis set is non-standard
 Compound shells will be simplified
 There are 40 shells and 98 basis functions
 A cutoff of  1.0D-14 yielded    803 shell pairs
 There are      4889 function pairs (      5628 Cartesian)
 Smallest overlap matrix eigenvalue = 6.71E-04

 Scale SEOQF with 1.000000e-01/1.000000e-01/1.000000e-01

 Standard Electronic Orientation quadrupole field applied
 Nucleus-field energy     =     0.0000000018 hartrees
 Guess MOs from SCF MO coefficient file
 Reading MOs from coefficient file
 Reading MOs from coefficient file
 A restricted hybrid HF-DFT SCF calculation will be
 performed using Geometric Direct Minimization
 Exchange:     0.2000 Hartree-Fock + 0.0800 Slater + 0.7200 B88
 Correlation:  0.1900 VWN1RPA + 0.8100 LYP
 Using Euler-Maclaurin-Lebedev (128,302) quadrature formula
 Dispersion:   Grimme D3
 SCF converges when RMS gradient is below 1.0E-08
 Maximum number of minimization steps = 200
 using 12 threads for integral computing 
 -------------------------------------------------------
 OpenMP BLAS3 based DFT computing Module                
 Release: version 1.0, May 2013, Q-Chem Inc. Pittsburgh 
 -------------------------------------------------------
 
   ------------------- Entering Geometric Direct Minimization ------------------
   GDM:         diagonal hessian shift is      0.000000000000000E+000
   GDM::PreWSS: input subspace size is                  1
   GDM::PreWSS: working subspace size set to            1
   GDM::PrEWSS: # of linearly dependent vectors =            0
   GDM::PrEWSS: Max dev from orthonormality =   0.000000000000000E+000
   GDM::BFGS:   lowest Hinv e-value     1.00000000000000     
   GDM::BFGS:   highest Hinv e-value    1.00000000000000     
   GDM::      : max scaling in EWCs is          2.39024180969908     
   GDM::      : max rotation in step is       -4.540198193977449E-009
   GDM::        grad.step =  -3.438778544758453E-016
   ------- Leaving GDM -- hopefully with a step in the right direction! --------
 
 ---------------------------------------
  Cycle       Energy        RMS Gradient
 ---------------------------------------
    1    -318.8462587113      3.52E-09  Gap = 0.00 eV  Normal BFGS step
 
   ------------------- Entering Geometric Direct Minimization ------------------
   GDM::trust : actual energy change is       -2.842170943040401E-013
   GDM::trust : predicted energy change was   -5.158167817137682E-016
   GDM::trust : updated trust radius is        0.330000000000000     
   GDM:         diagonal hessian shift is      0.000000000000000E+000
   GDM::PreWSS: input subspace size is                  2
   GDM::PreWSS: working subspace size set to            2
   GDM::PrEWSS: # of linearly dependent vectors =            1
   GDM::PrEWSS: Max dev from orthonormality =   8.847089727481716E-016
   GDM::BFGS:   lowest Hinv e-value    0.239344402534524     
   GDM::BFGS:   highest Hinv e-value    1.06568457219786     
   GDM::      : max scaling in EWCs is          2.39024182079695     
   GDM::      : max rotation in step is        3.679527953193711E-009
   GDM::        grad.step =  -7.653305976345205E-016
   ------- Leaving GDM -- hopefully with a step in the right direction! --------
 
    2    -318.8462587113      1.20E-08  Gap = 0.00 eV  Normal BFGS step
 
   ------------------- Entering Geometric Direct Minimization ------------------
   GDM::trust : actual energy change is        7.389644451905042E-013
   GDM::trust : predicted energy change was   -1.147995896451781E-015
   GDM::trust : updated trust radius is        0.108900000000000     
   GDM::WARNING energy changes are now smaller than effective accuracy.
   GDM::        calculation will continue, but THRESH should be increased
   GDM::        or SCF_CONVERGENCE decreased.
   GDM::        effective_thresh =   2.400000000000000E-010
   GDM:         diagonal hessian shift is      0.000000000000000E+000
   GDM::PreWSS: input subspace size is                  3
   GDM::PreWSS: working subspace size set to            3
   GDM::PrEWSS: # of linearly dependent vectors =            2
   GDM::PrEWSS: Max dev from orthonormality =   1.339206523454095E-015
   GDM::BFGS:   lowest Hinv e-value    0.231922271921816     
   GDM::BFGS:   highest Hinv e-value    1.07002507844190     
   GDM::      : max scaling in EWCs is          2.39024181291613     
   GDM::      : max rotation in step is       -2.427902006087390E-009
   GDM::        grad.step =  -2.680555551533679E-017
   ------- Leaving GDM -- hopefully with a step in the right direction! --------
 
    3    -318.8462587113      1.31E-09 Convergence criterion met
 ---------------------------------------
 One-Electron    Energy =  -872.7646969486
 Total Coulomb   Energy =   388.4325895187
 Alpha Exchange  Energy =    -3.5420742373
 Beta  Exchange  Energy =    -3.5420742373
 DFT   Exchange  Energy =   -28.4916810739
 DFT Correlation Energy =    -2.1050864116
 Nuclear Repu.   Energy =   203.1667646785
 Nuclear Attr.   Energy = -1145.4378449516
 Kinetic         Energy =   272.6731480030
 SCF time:  CPU 10.57 s  wall 0.89 s
 SCF   energy in the final basis set = -318.8462587113
 Total energy in the final basis set = -318.8462587113
 
 --------------------------------------------------------------
 
                    Orbital Energies (a.u.)
 --------------------------------------------------------------
 
 Alpha MOs
 -- Occupied --
-19.134 -19.127 -19.127  -2.042  -2.018  -1.308  -1.271  -1.253
 -1.243  -1.221  -1.184  -0.888  -0.842  -0.836  -0.375  -0.370
 -0.359  -0.336  -0.331  -0.324  -0.314  -0.305  -0.285  -0.202
 -- Virtual --
 -0.115  -0.104  -0.083  -0.071  -0.043  -0.029  -0.002   0.008
  0.021   0.023   0.039   0.043   0.048   0.053   0.055   0.056
  0.085   0.107   0.148   0.157   0.171   0.175   0.200   0.204
  0.219   0.222   0.225   0.235   0.237   0.245   0.259   0.268
  0.274   0.282   0.294   0.294   0.299   0.300   0.362   0.388
  0.395   0.399   0.568   0.623   1.076   1.160   1.182   1.185
  1.214   1.217   1.238   1.248   1.298   1.309   1.648   1.705
  1.757   1.785   1.800   1.814   1.818   1.832   1.833   1.842
  1.857   1.867   1.871   1.887   1.930   1.945   2.097   2.233
 14.960  17.442
 --------------------------------------------------------------
 
          Ground-State Mulliken Net Atomic Charges

     Atom                 Charge (a.u.)
  ----------------------------------------
      1 Zr                    0.937849
      2 Zr                    0.938010
      3 O                    -0.494509
      4 O                    -0.886527
      5 O                    -0.494823
  ----------------------------------------
  Sum of atomic charges =     0.000000

 -----------------------------------------------------------------
                    Cartesian Multipole Moments
 -----------------------------------------------------------------
    Charge (ESU x 10^10)
                 0.0000
    Dipole Moment (Debye)
         X       0.0461      Y       0.6725      Z       1.1687
       Tot       1.3492
    Quadrupole Moments (Debye-Ang)
        XX     -43.9608     XY      -4.4038     YY     -75.9660
        XZ       1.3374     YZ       7.3502     ZZ     -67.8504
    Octopole Moments (Debye-Ang^2)
       XXX      25.3636    XXY       1.3228    XYY       9.0988
       YYY     -24.0901    XXZ      -0.2720    XYZ      -3.8311
       YYZ      -4.5239    XZZ      17.6903    YZZ      13.7866
       ZZZ     -14.7970
    Hexadecapole Moments (Debye-Ang^3)
      XXXX    -326.9865   XXXY    -111.9606   XXYY    -137.0280
      XYYY    -134.0114   YYYY    -508.8631   XXXZ      67.4774
      XXYZ      33.6395   XYYZ      38.6530   YYYZ     106.0824
      XXZZ    -106.9778   XYZZ     -49.4341   YYZZ    -145.0037
      XZZZ      74.9833   YZZZ      88.0607   ZZZZ    -311.8833
 -----------------------------------------------------------------
 Calculating analytic gradient of the SCF energy
 Gradient of SCF Energy
            1           2           3           4           5
    1  -0.2235621   0.2247065   0.0245502   0.0005519  -0.0262466
    2  -0.0064306   0.0185156  -0.0725992   0.0075426   0.0529717
    3   0.0276425  -0.0071915   0.0182018   0.0132778  -0.0519306
 Max gradient component =       2.247E-01
 RMS gradient           =       8.729E-02
 Gradient time:  CPU 14.40 s  wall 1.92 s
 Geometry Optimization Parameters
   NAtoms,    NIC,     NZ,  NCons,   NDum,   NFix, NCnnct, MaxDiis
        5      27       0       0       0       0       0       0


** GEOMETRY OPTIMIZATION IN DELOCALIZED INTERNAL COORDINATES **
   Searching for a Minimum

   Optimization Cycle:   1

                       Coordinates (Angstroms)
     ATOM                X               Y               Z
      1  Zr        0.8295700000    0.5321500000   -0.2390000000
      2  Zr       -1.2076700000   -0.4347300000    0.4117900000
      3  O         0.5973300000    2.1951200000   -0.5712800000
      4  O        -0.2511900000   -0.7336900000   -1.2685700000
      5  O        -0.9291800000   -1.5647800000    1.6670600000
   Point Group: c1    Number of degrees of freedom:     9


   Energy is   -318.846258711


 Attempting to Generate Delocalized Internal Coordinates

  9 Hessian modes will be used to form the next step
  Hessian Eigenvalues:
     0.081287    0.083799    0.141789    0.168383    0.173727    0.186633
     0.201790    0.345063    0.345216

 Minimum Search - Taking Simple RFO Step
 Searching for Lamda that Minimizes Along All modes
 Value Taken    Lamda =  -0.15953308
 Calculated Step too Large.  Step scaled by  0.425259
 Step Taken.  Stepsize is  0.300000

                             Maximum     Tolerance    Cnvgd?
         Gradient           0.177782      0.000300      NO
         Displacement       0.208155      0.001200      NO
         Energy change     *********      0.000001      NO


 New Cartesian Coordinates Obtained by Inverse Iteration

 Displacement from previous Coordinates is:  0.252924
 ----------------------------------------------------------------
             Standard Nuclear Orientation (Angstroms)
    I     Atom           X                Y                Z
 ----------------------------------------------------------------
    1      Zr      0.8900439359     0.5550700184    -0.2614575277
    2      Zr     -1.2686611726    -0.4633939397     0.4245421327
    3      O       0.6166457069     2.2449327892    -0.6060435782
    4      O      -0.2503847662    -0.7235659550    -1.2511650989
    5      O      -0.9487837040    -1.6189729128     1.6941240722
 ----------------------------------------------------------------
 Nuclear Repulsion Energy =   198.1861730074 hartrees
 There are       24 alpha and       24 beta electrons
 Applying Cartesian multipole field
    Component          Value
    ---------          -----
     (2,0,0)        1.00000E-11
     (0,2,0)        2.00000E-11
     (0,0,2)       -3.00000E-11
 Nucleus-field energy     =     0.0000000021 hartrees
 Requested basis set is non-standard
 There are 31 shells and 98 basis functions
 A cutoff of  1.0D-14 yielded    486 shell pairs
 There are      4916 function pairs (      5655 Cartesian)
 Requested basis set is non-standard
 Compound shells will be simplified
[...]
 
    9    -318.9608151160      1.16E-05  Gap = -10.12 eV  Line search: overstep
 
   ------------------- Entering Geometric Direct Minimization ------------------
   GDM::trust : actual energy change is       -4.988578439224511E-009
   GDM::trust : predicted energy change was   -2.674758512035325E-008
   GDM::trust : updated trust radius is        0.108900000000000     
   GDM:         diagonal hessian shift is      0.000000000000000E+000
   GDM::PreWSS: input subspace size is                  8
   GDM::PreWSS: working subspace size set to            8
   GDM::PrEWSS: # of linearly dependent vectors =            6
   GDM::PrEWSS: Max dev from orthonormality =   1.642103120147453E-012
   GDM::BFGS:   lowest Hinv e-value    0.216631208081763     
   GDM::BFGS:   highest Hinv e-value    1.32978442562670     
   GDM::      : max scaling in EWCs is          2.39013173066242     
   GDM::      : max rotation in step is        1.927949855950604E-005
   GDM::        grad.step =  -2.749917822337839E-009
   ------- Leaving GDM -- hopefully with a step in the right direction! --------
 
   10    -318.9608151440      1.82E-05  Gap = -10.12 eV  Normal BFGS step
 
   ------------------- Entering Geometric Direct Minimization ------------------
   GDM::trust : actual energy change is       -1.692967543931445E-009
   GDM::trust : predicted energy change was   -4.124876733506758E-009
   GDM::trust : updated trust radius is        0.330000000000000     
   GDM:         diagonal hessian shift is      0.000000000000000E+000
   GDM::PreWSS: input subspace size is                  9
   GDM::PreWSS: working subspace size set to            9
   GDM::PrEWSS: # of linearly dependent vectors =            7
   GDM::PrEWSS: Max dev from orthonormality =   1.088254486525386E-012
   GDM::BFGS:   lowest Hinv e-value    0.232580968294089     
   GDM::BFGS:   highest Hinv e-value    1.30818221027111     
   GDM::      : max scaling in EWCs is          2.39020996240298     
   GDM::      : max rotation in step is       -1.739521743032668E-005
   GDM::        grad.step =  -7.510222467426184E-010
   ------- Leaving GDM -- hopefully with a step in the right direction! --------
 
   11    -318.9608151457      9.62E-06  Gap = -10.12 eV  Normal BFGS step
 
   ------------------- Entering Geometric Direct Minimization ------------------
   GDM::trust : actual energy change is        5.900346877751872E-011
   GDM::trust : predicted energy change was   -1.126533370113928E-009
   GDM::trust : updated trust radius is        0.108900000000000     
   GDM::WARNING energy changes are now smaller than effective accuracy.
   GDM::        calculation will continue, but THRESH should be increased
   GDM::        or SCF_CONVERGENCE decreased.
   GDM::        effective_thresh =   6.695986126681319E-010
   GDM:         diagonal hessian shift is      0.000000000000000E+000
   GDM::PreWSS: input subspace size is                 10
   GDM::PreWSS: working subspace size set to           10
   GDM::PrEWSS: # of linearly dependent vectors =            8
   GDM::PrEWSS: Max dev from orthonormality =   1.496816559587444E-012
   GDM::BFGS:   lowest Hinv e-value    0.223446772698753     
   GDM::BFGS:   highest Hinv e-value    1.34103984108081     
   GDM::      : max scaling in EWCs is          2.39018566909485     
   GDM::      : max rotation in step is        1.362350766428766E-005
   GDM::        grad.step =  -6.332677328414223E-010
   ------- Leaving GDM -- hopefully with a step in the right direction! --------
 
   12    -318.9608151457      1.57E-05  Gap = -10.12 eV  Normal BFGS step
 
   ------------------- Entering Geometric Direct Minimization ------------------
   GDM::trust : actual energy change is       -4.553726284939330E-010
   GDM::trust : predicted energy change was   -9.499015992621333E-010
   GDM::trust : updated trust radius is        0.330000000000000     
   GDM:         diagonal hessian shift is      0.000000000000000E+000
   GDM::PreWSS: input subspace size is                 11
   GDM::PreWSS: working subspace size set to           11
   GDM::PrEWSS: # of linearly dependent vectors =            9
   GDM::PrEWSS: Max dev from orthonormality =   3.262570769102524E-012
   GDM::BFGS:   lowest Hinv e-value    0.230219656552823     
   GDM::BFGS:   highest Hinv e-value    1.31785067152577     
   GDM::      : max scaling in EWCs is          2.39016521799967     
   GDM::      : max rotation in step is       -5.860771769141430E-006
   GDM::        grad.step =  -1.228298303347318E-010
   ------- Leaving GDM -- hopefully with a step in the right direction! --------
 
   13    -318.9608151461      4.39E-06  Gap = -10.12 eV  Normal BFGS step
 
   ------------------- Entering Geometric Direct Minimization ------------------
   GDM::trust : actual energy change is       -6.065192792448215E-011
   GDM::trust : predicted energy change was   -1.842447455020977E-010
   GDM::trust : updated trust radius is        0.330000000000000     
   GDM:         diagonal hessian shift is      0.000000000000000E+000
   GDM::PreWSS: input subspace size is                 12
   GDM::PreWSS: working subspace size set to           12
   GDM::PrEWSS: # of linearly dependent vectors =           10
   GDM::PrEWSS: Max dev from orthonormality =   2.943847943193134E-011
   GDM::BFGS:   lowest Hinv e-value    0.227220380655100     
   GDM::BFGS:   highest Hinv e-value    1.28994694639665     
   GDM::      : max scaling in EWCs is          2.39018899681153     
   GDM::      : max rotation in step is        3.053160149905360E-006
   GDM::        grad.step =  -2.947279128318317E-011
   ------- Leaving GDM -- hopefully with a step in the right direction! --------
 
   14    -318.9608151462      2.38E-06  Gap = -10.12 eV  Normal BFGS step
 
   ------------------- Entering Geometric Direct Minimization ------------------
   GDM::trust : actual energy change is       -2.734168447204866E-011
   GDM::trust : predicted energy change was   -4.420918692477476E-011
   GDM::trust : updated trust radius is        0.330000000000000     
   GDM:         diagonal hessian shift is      0.000000000000000E+000
   GDM::PreWSS: input subspace size is                 13
   GDM::PreWSS: working subspace size set to           13
   GDM::PrEWSS: # of linearly dependent vectors =           11
   GDM::PrEWSS: Max dev from orthonormality =   8.363882503248377E-011
   GDM::BFGS:   lowest Hinv e-value    0.225290415666891     
   GDM::BFGS:   highest Hinv e-value    1.30114014946027     
   GDM::      : max scaling in EWCs is          2.39018101609695     
   GDM::      : max rotation in step is       -5.315058877717951E-007
   GDM::        grad.step =  -1.053797856365075E-012
   ------- Leaving GDM -- hopefully with a step in the right direction! --------
 
   15    -318.9608151462      4.08E-07  Gap = -10.12 eV  Normal BFGS step
 
   ------------------- Entering Geometric Direct Minimization ------------------
   GDM::trust : actual energy change is       -7.389644451905042E-013
   GDM::trust : predicted energy change was   -1.580696784547613E-012
   GDM::trust : updated trust radius is        0.330000000000000     
   GDM:         diagonal hessian shift is      0.000000000000000E+000
   GDM::PreWSS: input subspace size is                 14
   GDM::PreWSS: working subspace size set to           14
   GDM::PrEWSS: # of linearly dependent vectors =           12
   GDM::PrEWSS: Max dev from orthonormality =   1.447597389181432E-010
   GDM::BFGS:   lowest Hinv e-value    0.228212454493599     
   GDM::BFGS:   highest Hinv e-value    1.27854186174513     
   GDM::      : max scaling in EWCs is          2.39018089663099     
   GDM::      : max rotation in step is        9.082153009832429E-008
   GDM::        grad.step =  -1.447131822405789E-013
   ------- Leaving GDM -- hopefully with a step in the right direction! --------
 
   16    -318.9608151462      8.98E-08  Gap = -10.12 eV  Normal BFGS step
 
   ------------------- Entering Geometric Direct Minimization ------------------
   GDM::trust : actual energy change is        3.410605131648481E-013
   GDM::trust : predicted energy change was   -2.170697733608684E-013
   GDM::trust : updated trust radius is        0.108900000000000     
   GDM::WARNING energy changes are now smaller than effective accuracy.
   GDM::        calculation will continue, but THRESH should be increased
   GDM::        or SCF_CONVERGENCE decreased.
   GDM::        effective_thresh =   6.695986126681319E-010
   GDM:         diagonal hessian shift is      0.000000000000000E+000
   GDM::PreWSS: input subspace size is                 15
   GDM::PreWSS: working subspace size set to           15
   GDM::PrEWSS: # of linearly dependent vectors =           13
   GDM::PrEWSS: Max dev from orthonormality =   2.958620674842205E-010
   GDM::BFGS:   lowest Hinv e-value    0.226502784566267     
   GDM::BFGS:   highest Hinv e-value    1.27700035377696     
   GDM::      : max scaling in EWCs is          2.39018103089322     
   GDM::      : max rotation in step is       -1.687434627547125E-008
   GDM::        grad.step =  -4.696057345901636E-015
   ------- Leaving GDM -- hopefully with a step in the right direction! --------
 
   17    -318.9608151462      1.49E-08  Gap = -10.12 eV  Normal BFGS step
 
   ------------------- Entering Geometric Direct Minimization ------------------
   GDM::trust : actual energy change is       -3.410605131648481E-013
   GDM::trust : predicted energy change was   -7.044086018852454E-015
   GDM::trust : updated trust radius is        0.330000000000000     
   GDM:         diagonal hessian shift is      0.000000000000000E+000
   GDM::PreWSS: input subspace size is                 16
   GDM::PreWSS: working subspace size set to           16
   GDM::PrEWSS: # of linearly dependent vectors =           14
   GDM::PrEWSS: Max dev from orthonormality =   4.521918742228515E-010
   GDM::BFGS:   lowest Hinv e-value    0.225380615509798     
   GDM::BFGS:   highest Hinv e-value    1.27978435073768     
   GDM::      : max scaling in EWCs is          2.39018105719088     
   GDM::      : max rotation in step is       -4.928078197291656E-009
   GDM::        grad.step =  -4.524584246530667E-016
   ------- Leaving GDM -- hopefully with a step in the right direction! --------
 
   18    -318.9608151462      5.69E-09 Convergence criterion met
 ---------------------------------------
 One-Electron    Energy =  -845.9202994338
 Total Coulomb   Energy =   375.0244035393
 Alpha Exchange  Energy =    -3.5186212279
 Beta  Exchange  Energy =    -3.5186212279
 DFT   Exchange  Energy =   -28.3121747509
 DFT Correlation Energy =    -2.0878901657
 Nuclear Repu.   Energy =   189.3723881206
 Nuclear Attr.   Energy = -1117.3242738257
 Kinetic         Energy =   271.4039743919
 SCF time:  CPU 61.73 s  wall 5.50 s
 SCF   energy in the final basis set = -318.9608151462
 Total energy in the final basis set = -318.9608151462
 
 --------------------------------------------------------------
 
                    Orbital Energies (a.u.)
 --------------------------------------------------------------
 
 Alpha MOs
 -- Occupied --
-19.136 -19.113 -19.113  -2.038  -2.036  -1.264  -1.260  -1.256
 -1.238  -1.235  -1.223  -0.883  -0.832  -0.832  -0.367  -0.354
 -0.349  -0.307  -0.306  -0.303  -0.301  -0.297  -0.273  -0.188
 -- Virtual --
 -0.101  -0.095  -0.074  -0.072  -0.066  -0.037  -0.014  -0.003
 -0.001   0.013   0.026   0.027   0.035   0.039   0.051   0.054
  0.066   0.098   0.107   0.140   0.163   0.170   0.184   0.196
  0.202   0.218   0.224   0.225   0.245   0.249   0.255   0.259
  0.261   0.269   0.276   0.280   0.290   0.293   0.350   0.359
  0.360   0.374   0.460   0.648   0.885   1.173   1.196   1.201
  1.215   1.227   1.250   1.272   1.272   1.311   1.655   1.678
  1.740   1.791   1.805   1.821   1.830   1.836   1.850   1.854
  1.865   1.870   1.877   1.880   1.918   1.949   2.054   2.116
 12.718  12.784
 --------------------------------------------------------------
 
          Ground-State Mulliken Net Atomic Charges

     Atom                 Charge (a.u.)
  ----------------------------------------
      1 Zr                    1.075251
      2 Zr                    1.077291
      3 O                    -0.619275
      4 O                    -0.914359
      5 O                    -0.618907
  ----------------------------------------
  Sum of atomic charges =     0.000000

 -----------------------------------------------------------------
                    Cartesian Multipole Moments
 -----------------------------------------------------------------
    Charge (ESU x 10^10)
                 0.0000
    Dipole Moment (Debye)
         X       0.0651      Y       0.6430      Z       1.0849
       Tot       1.2628
    Quadrupole Moments (Debye-Ang)
        XX     -36.5407     XY      -2.9151     YY     -81.2829
        XZ       0.2181     YZ      11.4871     ZZ     -68.2098
    Octopole Moments (Debye-Ang^2)
       XXX      21.4602    XXY       2.7470    XYY      12.8401
       YYY     -23.5389    XXZ       2.8232    XYZ      -3.4009
       YYZ      -6.5124    XZZ      14.3855    YZZ       8.9022
       ZZZ     -19.8759
    Hexadecapole Moments (Debye-Ang^3)
      XXXX    -450.0027   XXXY    -151.5434   XXYY    -185.6801
      XYYY    -198.9469   YYYY    -645.1592   XXXZ      91.8237
      XXYZ      51.6127   XYYZ      63.4509   YYYZ     176.2295
      XXZZ    -133.6069   XYZZ     -70.6634   YYZZ    -178.5715
      XZZZ     108.4806   YZZZ     137.8563   ZZZZ    -322.6439
 -----------------------------------------------------------------
 Calculating analytic gradient of the SCF energy
 Gradient of SCF Energy
            1           2           3           4           5
    1  -0.0001316   0.0001136   0.0000552  -0.0000259  -0.0000113
    2  -0.0000043  -0.0000341   0.0000207  -0.0000013   0.0000189
    3  -0.0000138  -0.0000193   0.0000040  -0.0000235   0.0000525
 Max gradient component =       1.316E-04
 RMS gradient           =       5.159E-05
 Gradient time:  CPU 13.64 s  wall 1.64 s
 Geometry Optimization Parameters
   NAtoms,    NIC,     NZ,  NCons,   NDum,   NFix, NCnnct, MaxDiis
        5      27       0       0       0       0       0       0

 Cartesian Hessian Update
 Hessian Updated using BFGS Update


** GEOMETRY OPTIMIZATION IN DELOCALIZED INTERNAL COORDINATES **
   Searching for a Minimum

   Optimization Cycle:  12

                       Coordinates (Angstroms)
     ATOM                X               Y               Z
      1  Zr        1.1203376936    0.6833050176   -0.2931211774
      2  Zr       -1.4897846237   -0.5427751798    0.5377389811
      3  O         0.6748372755    2.3041656194   -0.8731897249
      4  O        -0.2366648302   -0.5716042212   -0.9883971579
      5  O        -1.0298655152   -1.8790212360    1.6169690791
   Point Group: c1    Number of degrees of freedom:     9


   Energy is   -318.960815146

 Hessian Updated using BFGS Update

  9 Hessian modes will be used to form the next step
  Hessian Eigenvalues:
     0.020241    0.050306    0.085912    0.104807    0.173731    0.185642
     0.201606    0.345107    0.376684

 Minimum Search - Taking Simple RFO Step
 Searching for Lamda that Minimizes Along All modes
 Value Taken    Lamda =   0.00000000
 Step Taken.  Stepsize is  0.002729

                             Maximum     Tolerance    Cnvgd?
         Gradient           0.000126      0.000300     YES
         Displacement       0.002273      0.001200      NO
         Energy change     -0.000001      0.000001     YES


                       Distance Matrix (Angstroms)
             Zr(  1)   Zr(  2)   O (  3)   O (  4)
   Zr(  2)  3.001056
   O (  3)  1.778240  3.844656
   O (  4)  1.974756  1.974900  3.018967
   O (  5)  3.851926  1.778150  5.158096  3.021000
 
 Final energy is   -318.960815146224     


 ******************************
 **  OPTIMIZATION CONVERGED  **
 ******************************

                       Coordinates (Angstroms)
     ATOM                X               Y               Z
      1  Zr        1.1203376936    0.6833050176   -0.2931211774
      2  Zr       -1.4897846237   -0.5427751798    0.5377389811
      3  O         0.6748372755    2.3041656194   -0.8731897249
      4  O        -0.2366648302   -0.5716042212   -0.9883971579
      5  O        -1.0298655152   -1.8790212360    1.6169690791

Z-matrix Print:
$molecule
0 1
Zr
O  1 1.778150
O  1 1.974900 2 107.093571
Zr 3 1.974756 1 98.897930 2 92.467357 0
O  4 1.778240 3 106.991300 1 92.099065 0
$end

 
 --------------------------------------------------------------
 
                    Orbital Energies (a.u.)
 --------------------------------------------------------------
 
 Alpha MOs
 -- Occupied --
-19.136 -19.113 -19.113  -2.038  -2.036  -1.264  -1.260  -1.256
 -1.238  -1.235  -1.223  -0.883  -0.832  -0.832  -0.367  -0.354
 -0.349  -0.307  -0.306  -0.303  -0.301  -0.297  -0.273  -0.188
 -- Virtual --
 -0.101  -0.095  -0.074  -0.072  -0.066  -0.037  -0.014  -0.003
 -0.001   0.013   0.026   0.027   0.035   0.039   0.051   0.054
  0.066   0.098   0.107   0.140   0.163   0.170   0.184   0.196
  0.202   0.218   0.224   0.225   0.245   0.249   0.255   0.259
  0.261   0.269   0.276   0.280   0.290   0.293   0.350   0.359
  0.360   0.374   0.460   0.648   0.885   1.173   1.196   1.201
  1.215   1.227   1.250   1.272   1.272   1.311   1.655   1.678
  1.740   1.791   1.805   1.821   1.830   1.836   1.850   1.854
  1.865   1.870   1.877   1.880   1.918   1.949   2.054   2.116
 12.718  12.784
 --------------------------------------------------------------
 
          Ground-State Mulliken Net Atomic Charges

     Atom                 Charge (a.u.)
  ----------------------------------------
      1 Zr                    1.075251
      2 Zr                    1.077291
      3 O                    -0.619275
      4 O                    -0.914359
      5 O                    -0.618907
  ----------------------------------------
  Sum of atomic charges =     0.000000

 -----------------------------------------------------------------
                    Cartesian Multipole Moments
 -----------------------------------------------------------------
    Charge (ESU x 10^10)
                 0.0000
    Dipole Moment (Debye)
         X       0.0651      Y       0.6430      Z       1.0849
       Tot       1.2628
    Quadrupole Moments (Debye-Ang)
        XX     -36.5407     XY      -2.9151     YY     -81.2829
        XZ       0.2181     YZ      11.4871     ZZ     -68.2098
    Octopole Moments (Debye-Ang^2)
       XXX      21.4602    XXY       2.7470    XYY      12.8401
       YYY     -23.5389    XXZ       2.8232    XYZ      -3.4009
       YYZ      -6.5124    XZZ      14.3855    YZZ       8.9022
       ZZZ     -19.8759
    Hexadecapole Moments (Debye-Ang^3)
      XXXX    -450.0027   XXXY    -151.5434   XXYY    -185.6801
      XYYY    -198.9469   YYYY    -645.1592   XXXZ      91.8237
      XXYZ      51.6127   XYYZ      63.4509   YYYZ     176.2295
      XXZZ    -133.6069   XYZZ     -70.6634   YYZZ    -178.5715
      XZZZ     108.4806   YZZZ     137.8563   ZZZZ    -322.6439
 -----------------------------------------------------------------
Archival summary:
1\1\hpc0488\OPT\ProcedureUnspecified\BasisUnspecified\r23(+,1)\liqiuy\FriJan1721:26:062020FriJan1721:26:062020\0\\#,OPT,ProcedureUnspecified,BasisUnspecified,\\56,1\Zr\O,1,1.77815\O,1,1.9749,2,107.094\Zr,3,1.97476,1,98.8979,2,92.4674,0\O,4,1.77824,3,106.991,1,92.0991,0\\\@

 Total job time:  97.54s(wall), 1006.07s(cpu) 
 Fri Jan 17 21:26:06 2020

        *************************************************************
        *                                                           *
        *  Thank you very much for using Q-Chem.  Have a nice day.  *
        *                                                           *
        *************************************************************


0 sent ACK to 0 
now end server 0 ... 
cleanup process ... done
