
Running Job 1 of 2 ZrOx.in
qchem ZrOx.in_5314.0 /tmp/5733231.priya/ZrOx.save/ 1
/usr/usc/qchem/4.4/bin/mpi/mpirun_qchem -machinefile /usr/usc/qchem/4.4/bin/mpi/machines -np 1 /usr/usc/qchem/4.4/exe/qcprog.exe ZrOx.in_5314.0 /tmp/5733231.priya/ZrOx.save/

Process 0 of 1 is on hpc3718.hpcc.usc.edu - thread support 0
initial socket setup ...start
initial socket setup ...done 
now start server 0 ... 
Check license passed

                  Welcome to Q-Chem
     A Quantum Leap Into The Future Of Chemistry


 Q-Chem 4.4, Q-Chem, Inc., Pleasanton, CA (2016)

 Y. Shao,  Z. Gan,  E. Epifanovsky,  A. T. B. Gilbert,  M. Wormit,  
 J. Kussmann,  A. W. Lange,  A. Behn,  J. Deng,  X. Feng,  D. Ghosh,  
 M. Goldey,  P. R. Horn,  L. D. Jacobson,  I. Kaliman,  F.Rob,  
 R. Z. Khaliullin,  T. Kus,  A. Landau,  J. Liu,  E. I. Proynov,  Y. M. Rhee,  
 R. M. Richard,  M. A. Rohrdanz,  R. P. Steele,  E. J. Sundstrom,  
 H. L. Woodcock III,  P. M. Zimmerman,  D. Zuev,  B. Albrecht,  E. Alguire,  
 B. Austin,  S. A. Baeppler,  G. J. O. Beran,  Y. A. Bernard,  E. Berquist,  
 K. Brandhorst,  K. B. Bravaya,  S. T. Brown,  D. Casanova,  C.-M. Chang,  
 Y. Chen,  S. H. Chien,  K. D. Closser,  M. P. Coons,  D. L. Crittenden,  
 S. Dasgupta,  M. Diedenhofen,  R. A. DiStasio Jr.,  H. Do,  A. D. Dutoi,  
 R. G. Edgar,  P.-T. Fang,  S. Fatehi,  Q. Feng,  L. Fusti-Molnar,  
 A. Ghysels,  A. Golubeva-Zadorozhnaya,  J. Gomes,  A. Gunina,  
 M. W. D. Hanson-Heine,  P. H. P. Harbach,  A. W. Hauser,  E. G. Hohenstein,  
 Z. C. Holden,  K. Hui,  T.-C. Jagau,  H. Ji,  B. Kaduk,  K. Khistyaev,  
 Jaehoon Kim,  Jihan Kim,  R. A. King,  P. Klunzinger,  D. Kosenkov,  
 T. Kowalczyk,  C. M. Krauter,  A. Kunitsa,  K. U. Lao,  A. Laurent,  
 K. V. Lawler,  D. Lefrancois,  S. Lehtola,  S. V. Levchenko,  C. Y. Lin,  
 Y.-S. Lin,  F. Liu,  E. Livshits,  R. C. Lochan,  A. Luenser,  P. Manohar,  
 S. F. Manzer,  S.-P. Mao,  Y. Mao,  N. Mardirossian,  A. V. Marenich,  
 L. A. Martinez-Martinez,  S. A. Maurer,  N. J. Mayhall,  J.-M. Mewes,  
 A. F. Morrison,  K. Nanda,  C. M. Oana,  R. Olivares-Amaya,  D. P. O'Neill,  
 J. A. Parkhill,  T. M. Perrine,  R. Peverati,  P. A. Pieniazek,  F. Plasser,  
 A. Prociuk,  D. R. Rehn,  E. Rosta,  N. J. Russ,  N. Sergueev,  
 S. M. Sharada,  S. Sharma,  D. W. Small,  A. Sodt,  T. Stauch,  T. Stein,  
 D. Stuck,  Y.-C. Su,  A. J. W. Thom,  T. Tsuchimochi,  L. Vogt,  O. Vydrov,  
 T. Wang,  M. A. Watson,  J. Wenzel,  A. White,  C. F. Williams,  
 V. Vanovschi,  S. Yeganeh,  S. R. Yost,  Z.-Q. You,  I. Y. Zhang,  X. Zhang,  
 Y. Zhao,  B. R. Brooks,  G. K. L. Chan,  D. M. Chipman,  C. J. Cramer,  
 W. A. Goddard III,  M. S. Gordon,  W. J. Hehre,  A. Klamt,  
 H. F. Schaefer III,  M. W. Schmidt,  C. D. Sherrill,  D. G. Truhlar,  
 A. Warshel,  X. Xu,  A. Aspuru-Guzik,  R. Baer,  A. T. Bell,  N. A. Besley,  
 J.-D. Chai,  A. Dreuw,  B. D. Dunietz,  T. R. Furlani,  S. R. Gwaltney,  
 C.-P. Hsu,  Y. Jung,  J. Kong,  D. S. Lambrecht,  W. Liang,  C. Ochsenfeld,  
 V. A. Rassolov,  L. V. Slipchenko,  J. E. Subotnik,  T. Van Voorhis,  
 J. M. Herbert,  A. I. Krylov,  P. M. W. Gill,  M. Head-Gordon

 Contributors to earlier versions of Q-Chem not listed above: 
 R. D. Adamson,  J. Baker,  E. F. C. Byrd,  A. K. Chakraborty,  C.-L. Cheng,  
 H. Dachsel,  R. J. Doerksen,  G. Hawkins,  A. Heyden,  S. Hirata,  
 G. Kedziora,  F. J. Keil,  C. Kelley,  P. P. Korambath,  W. Kurlancheek,  
 A. M. Lee,  M. S. Lee,  D. Liotard,  I. Lotan,  P. E. Maslen,  N. Nair,  
 D. Neuhauser,  R. Olson,  B. Peters,  J. Ritchie,  N. E. Schultz,  
 N. Shenvi,  A. C. Simmonett,  K. S. Thanthiriwatte,  Q. Wu,  W. Zhang

 Please cite Q-Chem as follows:
 Y. Shao et al., Mol. Phys. 113, 184-215 (2015)
 DOI: 10.1080/00268976.2014.952696

 Q-Chem 4.4.1 for Intel X86 Linux

 Parts of Q-Chem use Armadillo 5.200.1 (Boston Tea Smuggler).
 http://arma.sourceforge.net/

 Q-Chem begins on Fri Jan 17 21:25:42 2020  

Host: 
0

     Scratch files written to /tmp/5733231.priya/ZrOx.save//
 Jul2716 11668_ 21447  21445 5558   
 Parallel job on  1  processors
Processing $rem in /usr/usc/qchem/4.4/config/preferences.
 MEM_TOTAL  2000 

Checking the input file for inconsistencies... 	...done.

--------------------------------------------------------------
User input:
--------------------------------------------------------------
$comment
--------------------------------------------------------
A SINGLE POINT DFT CALCULATION WITH BASIS SET PROJECTION
--------------------------------------------------------
$end

$molecule
0 3
Zr 0.17458 0.00000 -0.00015
O 1.13723 1.41175 -0.00106
O -1.59816 0.00173 0.73470
O 1.13707 -1.41186 0.00130
O -1.59827 -0.00163 -0.73469
$end

$rem
JOBTYPE   SP
METHOD   B3LYP
BASIS   GEN
ECP   GEN
MAX_SCF_CYCLES   200
SCF_CONVERGENCE 8
SCF_PRINT 1
PDB_PRINT 2
THRESH 14
VARTHRESH 14
INCDFT FALSE
SYMMETRY False
Sym_ignore True
SCF_ALGORITHM GDM
XC_GRID 000128000302
DFT_D           EMPIRICAL_GRIMME3
DFT_D3_S6       1000
DFT_D3_RS6     1261
DFT_D3_S8      1703
DFT_D3_3BODY    FALSE
$end

$basis
O
6-31+G**
****
S
6-31+G**
****
Zr
LanL2DZ
****
$end

$ecp
Zr
LanL2DZ
****
$end

--------------------------------------------------------------
 ----------------------------------------------------------------
             Standard Nuclear Orientation (Angstroms)
    I     Atom           X                Y                Z
 ----------------------------------------------------------------
    1      Zr      0.1745800000     0.0000000000    -0.0001500000
    2      O       1.1372300000     1.4117500000    -0.0010600000
    3      O      -1.5981600000     0.0017300000     0.7347000000
    4      O       1.1370700000    -1.4118600000     0.0013000000
    5      O      -1.5982700000    -0.0016300000    -0.7346900000
 ----------------------------------------------------------------
 Nuclear Repulsion Energy =   190.2539894194 hartrees
 There are       23 alpha and       21 beta electrons

 Q-Chem warning in module /home/scratch/svnadmin/11668_zgan/qchem/forms1/BasisType.C, line 1419:

 Setting pure/cartesian flag to 2111 for general basis


 Requested basis set is non-standard
 There are 28 shells and 94 basis functions

 Total QAlloc Memory Limit   2000 MB
 Mega-Array Size        61 MB
 MEM_STATIC part        62 MB

                       Distance Matrix (Angstroms)
             Zr(  1)   O (  2)   O (  3)   O (  4)
   O (  2)  1.708723
   O (  3)  1.919014  3.164152
   O (  4)  1.708724  2.823611  3.165059
   O (  5)  1.918997  3.165251  1.469394  3.164256
 
 A cutoff of  1.0D-14 yielded    401 shell pairs
 There are      4601 function pairs (      5216 Cartesian)
 
 -------------------------------------------------------
 OpenMP Integral Computing Module                       
 Release: version 1.0, May 2013, Q-Chem Inc. Pittsburgh 
 -------------------------------------------------------
 Integral Job Info:
 Integral job number is                      11
 Integral operator is                         1
 short-range coefficients                     0
 long-range coefficients              100000000
 Omega coefficients                           0
 if combine SR and LR in K                    0
 Integral screening is                        0
 Integral computing path is                   2
 max size of driver memory is            800000
 size of driver memory is                593474
 size of scratch memory is             11771240
 max col of scratch BK array               1296
 max len of scratch array in speh3          155
 max len of scratch index in speh4           18
 max int batch size is                      520
 min int batch size is                       52
 fixed nKL is                                52
 max L of basis functions is                  2
 order of int derivative is                   0
 number of shells is                         28
 number of basis is                         100
 number of cartesian basis is               100
 number of contracted shell pairs           401
 number of primitive shell pairs           1859
 maxK2 (contraction) of shell pair           36
 max number of K2 of shell pair               1
 max number of CS2 of shell pair             40
 max number of PS2 of shell pair            204
 mem total for path MDJ                   23704
 -------------------------------------------------------
 Requested basis set is non-standard
 Compound shells will be simplified
 There are 40 shells and 94 basis functions
 A cutoff of  1.0D-14 yielded    815 shell pairs
 There are      4565 function pairs (      5180 Cartesian)
 Smallest overlap matrix eigenvalue = 5.37E-04

 Scale SEOQF with 1.000000e-01/1.000000e-01/1.000000e-01

 Standard Electronic Orientation quadrupole field applied
 Nucleus-field energy     =     0.0000000036 hartrees
 Guess MOs from core Hamiltonian diagonalization
 An unrestricted hybrid HF-DFT SCF calculation will be
 performed using Geometric Direct Minimization
 Exchange:     0.2000 Hartree-Fock + 0.0800 Slater + 0.7200 B88
 Correlation:  0.1900 VWN1RPA + 0.8100 LYP
 Using Euler-Maclaurin-Lebedev (128,302) quadrature formula
 Dispersion:   Grimme D3
 SCF converges when RMS gradient is below 1.0E-08
 Maximum number of minimization steps = 200
 using 12 threads for integral computing 
 -------------------------------------------------------
 OpenMP BLAS3 based DFT computing Module                
 Release: version 1.0, May 2013, Q-Chem Inc. Pittsburgh 
 -------------------------------------------------------
 
   ------------------- Entering Geometric Direct Minimization ------------------
   GDM:         diagonal hessian shift is      0.000000000000000E+000
   GDM::PreWSS: input subspace size is                  1
   GDM::PreWSS: working subspace size set to            1
   GDM::PrEWSS: # of linearly dependent vectors =            0
   GDM::PrEWSS: Max dev from orthonormality =   0.000000000000000E+000
   GDM::BFGS:   lowest Hinv e-value     1.00000000000000     
   GDM::BFGS:   highest Hinv e-value    1.00000000000000     
   GDM::      : max scaling in EWCs is          1.41421356237309     
   GDM::      : max rotation in step is       -8.265381055244740E-002
   GDM::        grad.step =   -2.70365856439542     
   ------- Leaving GDM -- hopefully with a step in the right direction! --------
 
 ---------------------------------------
  Cycle       Energy        RMS Gradient
 ---------------------------------------
    1    -325.0139080430      1.76E+00  Gap = 0.00 eV  Descent step
 
   ------------------- Entering Geometric Direct Minimization ------------------
   GDM::trust : actual energy change is        -2.66869296238900     
   GDM::trust : predicted energy change was   -0.163350000000000     
   GDM::trust : updated trust radius is        0.330000000000000     
   GDM::search:  On step            1 .  The current bracket is:
       left   : x =  0.0000E+00, e =      -325.0139080430, g = -0.8155E+01
       current: x =  0.3315E+00, e =      -327.6826010054, g = -0.7898E+01
       right  : x =  0.1000E+04, e =      1000.0000000000, g =  0.1000E+04
       next   : x =  0.3315E+01
   GDM::      : max rotation in step is       -0.826538105524474     
   ------- Leaving GDM -- hopefully with a step in the right direction! --------
 
    2    -327.6826010054      2.91E+00  Gap = -17.51 eV  Line search: understep
 
   ------------------- Entering Geometric Direct Minimization ------------------
   GDM::trust : actual energy change is        -11.6329874798213     
   GDM::trust : predicted energy change was   -0.163350000000000     
   GDM::trust : updated trust radius is        0.330000000000000     
   GDM:         diagonal hessian shift is      0.000000000000000E+000
   GDM::PreWSS: input subspace size is                  2
   GDM::PreWSS: working subspace size set to            2
   GDM::PrEWSS: # of linearly dependent vectors =            0
   GDM::PrEWSS: Max dev from orthonormality =   9.766493169749424E-016
   GDM::BFGS:   lowest Hinv e-value    0.590754169642483     
   GDM::BFGS:   highest Hinv e-value    1.19620870103005     
   GDM::      : max scaling in EWCs is          2.82842712474619     
   GDM::      : max rotation in step is       -0.220677621821498     
   GDM::        grad.step =   -1.78875975424677     
   ------- Leaving GDM -- hopefully with a step in the right direction! --------
 
    3    -336.6468955228      1.28E+00  Gap = -17.51 eV  Descent step
 
   ------------------- Entering Geometric Direct Minimization ------------------
   GDM::trust : actual energy change is        -1.72796038287413     
   GDM::trust : predicted energy change was   -0.177081966609032     
   GDM::trust : updated trust radius is        0.330000000000000     
   GDM:         diagonal hessian shift is      0.000000000000000E+000
   GDM::PreWSS: input subspace size is                  3
   GDM::PreWSS: working subspace size set to            3
   GDM::PrEWSS: # of linearly dependent vectors =            0
   GDM::PrEWSS: Max dev from orthonormality =   8.711781296355525E-015
   GDM::BFGS:   lowest Hinv e-value    0.498177834294457     
   GDM::BFGS:   highest Hinv e-value    3.02841861336935     
   GDM::      : max scaling in EWCs is          2.82842712474619     
   GDM::      : max rotation in step is       -0.122005943160602     
   GDM::        grad.step =   -1.40474863053962     
   ------- Leaving GDM -- hopefully with a step in the right direction! --------
 
    4    -338.3748559057      7.94E-01  Gap = -17.51 eV  Descent step
 
   ------------------- Entering Geometric Direct Minimization ------------------
   GDM::trust : actual energy change is        -1.35998734005062     
   GDM::trust : predicted energy change was   -0.155127189503602     
   GDM::trust : updated trust radius is        0.330000000000000     
   GDM:         diagonal hessian shift is      0.000000000000000E+000
   GDM::PreWSS: input subspace size is                  4
   GDM::PreWSS: working subspace size set to            4
   GDM::PrEWSS: # of linearly dependent vectors =            0
   GDM::PrEWSS: Max dev from orthonormality =   1.826698514673097E-013
   GDM::BFGS:   lowest Hinv e-value    0.326351654863035     
   GDM::BFGS:   highest Hinv e-value    3.03489492026192     
   GDM::      : max scaling in EWCs is          2.82842712474619     
   GDM::      : max rotation in step is       -0.245014777014362     
   GDM::        grad.step =   -1.33142681400616     
   ------- Leaving GDM -- hopefully with a step in the right direction! --------
 
    5    -339.7348432458      1.13E+00  Gap = -17.51 eV  Descent step
 
   ------------------- Entering Geometric Direct Minimization ------------------
   GDM::trust : actual energy change is        -1.27580576536894     
   GDM::trust : predicted energy change was   -0.137746788420863     
   GDM::trust : updated trust radius is        0.330000000000000     
   GDM:         diagonal hessian shift is      0.000000000000000E+000
   GDM::PreWSS: input subspace size is                  5
   GDM::PreWSS: working subspace size set to            5
   GDM::PrEWSS: # of linearly dependent vectors =            0
   GDM::PrEWSS: Max dev from orthonormality =   2.321769512758642E-012
   GDM::BFGS:   lowest Hinv e-value    0.272877046910483     
   GDM::BFGS:   highest Hinv e-value    3.22871979184527     
   GDM::      : max scaling in EWCs is          2.82842712474619     
   GDM::      : max rotation in step is        0.155781868843694     
   GDM::        grad.step =   -1.13376506605379     
   ------- Leaving GDM -- hopefully with a step in the right direction! --------
 
    6    -341.0106490111      6.70E-01  Gap = -17.51 eV  Descent step
 
   ------------------- Entering Geometric Direct Minimization ------------------
   GDM::trust : actual energy change is        -1.06036986920486     
   GDM::trust : predicted energy change was   -0.152205325508709     
   GDM::trust : updated trust radius is        0.330000000000000     
   GDM:         diagonal hessian shift is      0.000000000000000E+000
   GDM::PreWSS: input subspace size is                  6
   GDM::PreWSS: working subspace size set to            6
   GDM::PrEWSS: # of linearly dependent vectors =            0
   GDM::PrEWSS: Max dev from orthonormality =   5.278555370580307E-013
   GDM::BFGS:   lowest Hinv e-value    0.284316422950603     
   GDM::BFGS:   highest Hinv e-value    3.72939993338418     
   GDM::      : max scaling in EWCs is          2.82842712474619     
   GDM::      : max rotation in step is       -0.136485641245107     
   GDM::        grad.step =  -0.950178701050865     
   ------- Leaving GDM -- hopefully with a step in the right direction! --------
 
    7    -342.0710188803      5.65E-01  Gap = -17.51 eV  Descent step
 
   ------------------- Entering Geometric Direct Minimization ------------------
   GDM::trust : actual energy change is       -0.869980220103400     
   GDM::trust : predicted energy change was   -0.157858421957883     
   GDM::trust : updated trust radius is        0.330000000000000     
   GDM:         diagonal hessian shift is      0.000000000000000E+000
   GDM::PreWSS: input subspace size is                  7
   GDM::PreWSS: working subspace size set to            7
   GDM::PrEWSS: # of linearly dependent vectors =            0
   GDM::PrEWSS: Max dev from orthonormality =   1.171309577108204E-012
   GDM::BFGS:   lowest Hinv e-value    0.284390854857810     
   GDM::BFGS:   highest Hinv e-value    4.15912387310607     
   GDM::      : max scaling in EWCs is          2.82842712474619     
   GDM::      : max rotation in step is        0.177666852042210     
   GDM::        grad.step =  -0.836905242668666     
   ------- Leaving GDM -- hopefully with a step in the right direction! --------
 
    8    -342.9409991004      5.20E-01  Gap = -17.51 eV  Descent step
 
   ------------------- Entering Geometric Direct Minimization ------------------
   GDM::trust : actual energy change is       -0.765500062896251     
   GDM::trust : predicted energy change was   -0.155137202646850     
   GDM::trust : updated trust radius is        0.330000000000000     
   GDM:         diagonal hessian shift is      0.000000000000000E+000
   GDM::PreWSS: input subspace size is                  8
   GDM::PreWSS: working subspace size set to            8
   GDM::PrEWSS: # of linearly dependent vectors =            0
   GDM::PrEWSS: Max dev from orthonormality =   1.462191479006947E-012
   GDM::BFGS:   lowest Hinv e-value    0.259849406379870     
   GDM::BFGS:   highest Hinv e-value    4.57528837154814     
   GDM::      : max scaling in EWCs is          2.82842712474619     
   GDM::      : max rotation in step is        0.178453479877616     
   GDM::        grad.step =  -0.699870789316146     
   ------- Leaving GDM -- hopefully with a step in the right direction! --------
 
    9    -343.7064991633      4.60E-01  Gap = -17.51 eV  Descent step
 
   ------------------- Entering Geometric Direct Minimization ------------------
   GDM::trust : actual energy change is       -0.642762489579752     
   GDM::trust : predicted energy change was   -0.150239236925641     
   GDM::trust : updated trust radius is        0.330000000000000     
   GDM:         diagonal hessian shift is      0.000000000000000E+000
   GDM::PreWSS: input subspace size is                  9
   GDM::PreWSS: working subspace size set to            9
   GDM::PrEWSS: # of linearly dependent vectors =            0
   GDM::PrEWSS: Max dev from orthonormality =   3.755114275083571E-012
   GDM::BFGS:   lowest Hinv e-value    0.237387949472963     
   GDM::BFGS:   highest Hinv e-value    4.93391003836902     
   GDM::      : max scaling in EWCs is          2.82842712474619     
   GDM::      : max rotation in step is        0.169835488727313     
   GDM::        grad.step =  -0.574701731238264     
   ------- Leaving GDM -- hopefully with a step in the right direction! --------
 
   10    -344.3492616529      3.87E-01  Gap = -17.51 eV  Descent step
 
   ------------------- Entering Geometric Direct Minimization ------------------
   GDM::trust : actual energy change is       -0.521341991779821     
   GDM::trust : predicted energy change was   -0.145867588937116     
   GDM::trust : updated trust radius is        0.330000000000000     
   GDM:         diagonal hessian shift is      0.000000000000000E+000
   GDM::PreWSS: input subspace size is                 10
   GDM::PreWSS: working subspace size set to           10
   GDM::PrEWSS: # of linearly dependent vectors =            0
   GDM::PrEWSS: Max dev from orthonormality =   3.583758290126582E-012
   GDM::BFGS:   lowest Hinv e-value    0.215485629707833     
   GDM::BFGS:   highest Hinv e-value    5.26893595255975     
   GDM::      : max scaling in EWCs is          2.82842712474619     
   GDM::      : max rotation in step is        8.709614245676414E-002
   GDM::        grad.step =  -0.456526689630080     
   ------- Leaving GDM -- hopefully with a step in the right direction! --------
 
   11    -344.8706036447      3.72E-01  Gap = -17.51 eV  Descent step
 
   ------------------- Entering Geometric Direct Minimization ------------------
   GDM::trust : actual energy change is       -0.410878909776955     
   GDM::trust : predicted energy change was   -0.142105396216432     
   GDM::trust : updated trust radius is        0.330000000000000     
   GDM:         diagonal hessian shift is      0.000000000000000E+000
   GDM::PreWSS: input subspace size is                 11
   GDM::PreWSS: working subspace size set to           11
   GDM::PrEWSS: # of linearly dependent vectors =            0
   GDM::PrEWSS: Max dev from orthonormality =   2.350224181935090E-012
   GDM::BFGS:   lowest Hinv e-value    0.210219870118266     
   GDM::BFGS:   highest Hinv e-value    5.33733088392240     
   GDM::      : max scaling in EWCs is          2.82842712474619     
   GDM::      : max rotation in step is        0.235404667384184     
   GDM::        grad.step =  -0.406316942497809     
   ------- Leaving GDM -- hopefully with a step in the right direction! --------
 
   12    -345.2814825545      5.06E-01  Gap = -17.51 eV  Descent step
 
   ------------------- Entering Geometric Direct Minimization ------------------
   GDM::trust : actual energy change is       -0.363267708864953     
   GDM::trust : predicted energy change was   -0.128506783145420     
   GDM::trust : updated trust radius is        0.330000000000000     
   GDM:         diagonal hessian shift is      0.000000000000000E+000
   GDM::PreWSS: input subspace size is                 12
   GDM::PreWSS: working subspace size set to           12
   GDM::PrEWSS: # of linearly dependent vectors =            0
   GDM::PrEWSS: Max dev from orthonormality =   7.352375652747156E-012
   GDM::BFGS:   lowest Hinv e-value    0.145705567571558     
   GDM::BFGS:   highest Hinv e-value    5.75633998223118     
   GDM::      : max scaling in EWCs is          2.82842712474619     
   GDM::      : max rotation in step is        0.433816905239931     
   GDM::        grad.step =  -0.463684324293522     
   ------- Leaving GDM -- hopefully with a step in the right direction! --------
 
   13    -345.6447502633      9.31E-01  Gap = -17.51 eV  Descent step
 
   ------------------- Entering Geometric Direct Minimization ------------------
   GDM::trust : actual energy change is       -0.408978876441836     
   GDM::trust : predicted energy change was   -0.181167301267774     
   GDM::trust : updated trust radius is        0.330000000000000     
   GDM:         diagonal hessian shift is      0.000000000000000E+000
   GDM::PreWSS: input subspace size is                 13
   GDM::PreWSS: working subspace size set to           13
   GDM::PrEWSS: # of linearly dependent vectors =            0
   GDM::PrEWSS: Max dev from orthonormality =   3.402165701937854E-012
   GDM::BFGS:   lowest Hinv e-value    0.145885187311828     
   GDM::BFGS:   highest Hinv e-value    5.73314941063527     
   GDM::      : max scaling in EWCs is          2.82842712474619     
   GDM::      : max rotation in step is        0.244513031496995     
   GDM::        grad.step =  -0.323305686947043     
   ------- Leaving GDM -- hopefully with a step in the right direction! --------
 
   14    -346.0537291398      3.81E-01  Gap = -17.51 eV  Descent step
 
   ------------------- Entering Geometric Direct Minimization ------------------
   GDM::trust : actual energy change is       -0.222915658161810     
   GDM::trust : predicted energy change was   -0.157591921545851     
   GDM::trust : updated trust radius is        0.330000000000000     
   GDM:         diagonal hessian shift is      0.000000000000000E+000
   GDM::PreWSS: input subspace size is                 14
   GDM::PreWSS: working subspace size set to           14
   GDM::PrEWSS: # of linearly dependent vectors =            0
   GDM::PrEWSS: Max dev from orthonormality =   2.187154971022842E-012
   GDM::BFGS:   lowest Hinv e-value    0.120172694991696     
   GDM::BFGS:   highest Hinv e-value    6.29167299801230     
   GDM::      : max scaling in EWCs is          2.82842712474619     
   GDM::      : max rotation in step is       -0.186711788140739     
   GDM::        grad.step =  -0.339692161427585     
   ------- Leaving GDM -- hopefully with a step in the right direction! --------
 
   15    -346.2766447979      3.14E-01  Gap = -17.51 eV  Descent step
 
   ------------------- Entering Geometric Direct Minimization ------------------
   GDM::trust : actual energy change is       -0.128694496978142     
   GDM::trust : predicted energy change was   -0.353078144388636     
   GDM::trust : updated trust radius is        0.330000000000000     
   GDM:         diagonal hessian shift is      0.000000000000000E+000
   GDM::PreWSS: input subspace size is                 15
   GDM::PreWSS: working subspace size set to           15
   GDM::PrEWSS: # of linearly dependent vectors =            0
   GDM::PrEWSS: Max dev from orthonormality =   1.554589790231375E-012
   GDM::BFGS:   lowest Hinv e-value    7.080176512520389E-002
   GDM::BFGS:   highest Hinv e-value    5.66747113093377     
   GDM::      : max scaling in EWCs is          2.82842712474619     
   GDM::      : max rotation in step is       -0.345162823957188     
   GDM::        grad.step =  -0.489987042164679     
   ------- Leaving GDM -- hopefully with a step in the right direction! --------
 
   16    -346.4053392949      6.61E-01  Gap = -17.51 eV  Descent step
 
   ------------------- Entering Geometric Direct Minimization ------------------
   GDM::trust : actual energy change is        0.168816867538055     
   GDM::trust : predicted energy change was   -0.672801102076574     
   GDM::trust : updated trust radius is        0.108900000000000     
   GDM::search:  On step            1 .  The current bracket is:
       left   : x =  0.0000E+00, e =      -346.4053392949, g = -0.6389E+00
       current: x =  0.7669E+00, e =      -346.2365224274, g =  0.1222E+01
       right  : x =  0.1000E+04, e =      1000.0000000000, g =  0.1000E+04
       next   : x =  0.2852E+00
   GDM::      : max rotation in step is       -0.128357853289231     
   ------- Leaving GDM -- hopefully with a step in the right direction! --------
 
   17    -346.2365224274      8.62E-02  Gap = -17.51 eV  Line search: overstep
 
   ------------------- Entering Geometric Direct Minimization ------------------
   GDM::trust : actual energy change is       -0.104161790152830     
   GDM::trust : predicted energy change was   -0.672801102076574     
   GDM::trust : updated trust radius is        0.108900000000000     
   GDM:         diagonal hessian shift is      0.000000000000000E+000
   GDM::PreWSS: input subspace size is                 16
   GDM::PreWSS: working subspace size set to           16
   GDM::PrEWSS: # of linearly dependent vectors =            0
   GDM::PrEWSS: Max dev from orthonormality =   3.354129474164580E-012
   GDM::BFGS:   lowest Hinv e-value    8.846975359721014E-002
   GDM::BFGS:   highest Hinv e-value    6.20074207442082     
   GDM::      : max scaling in EWCs is          2.82842712474619     
   GDM::      : max rotation in step is       -0.146934453263225     
   GDM::        grad.step =  -6.756726092352464E-002
   ------- Leaving GDM -- hopefully with a step in the right direction! --------
 
   18    -346.5095010851      3.11E-01  Gap = -17.51 eV  Descent step
 
   ------------------- Entering Geometric Direct Minimization ------------------
   GDM::trust : actual energy change is       -6.106061798993778E-002
   GDM::trust : predicted energy change was   -1.586083249599797E-002
   GDM::trust : updated trust radius is        0.330000000000000     
   GDM:         diagonal hessian shift is      0.000000000000000E+000
   GDM::PreWSS: input subspace size is                 17
   GDM::PreWSS: working subspace size set to           17
   GDM::PrEWSS: # of linearly dependent vectors =            0
   GDM::PrEWSS: Max dev from orthonormality =   6.629308213490503E-012
   GDM::BFGS:   lowest Hinv e-value    8.512971977115714E-002
   GDM::BFGS:   highest Hinv e-value    6.30170291036264     
   GDM::      : max scaling in EWCs is          2.82842712474619     
   GDM::      : max rotation in step is       -0.225403044897090     
   GDM::        grad.step =  -0.170559957250169     
   ------- Leaving GDM -- hopefully with a step in the right direction! --------
 
   19    -346.5705617031      1.64E-01  Gap = -17.51 eV  Descent step
 
   ------------------- Entering Geometric Direct Minimization ------------------
   GDM::trust : actual energy change is       -8.642902321372503E-002
   GDM::trust : predicted energy change was   -0.197359445841601     
   GDM::trust : updated trust radius is        0.330000000000000     
   GDM:         diagonal hessian shift is      0.000000000000000E+000
   GDM::PreWSS: input subspace size is                 18
   GDM::PreWSS: working subspace size set to           18
   GDM::PrEWSS: # of linearly dependent vectors =            0
   GDM::PrEWSS: Max dev from orthonormality =   4.415270232760449E-012
   GDM::BFGS:   lowest Hinv e-value    8.215223793004352E-002
   GDM::BFGS:   highest Hinv e-value    5.94602360321862     
   GDM::      : max scaling in EWCs is          2.82842712474619     
   GDM::      : max rotation in step is        0.433925069218889     
   GDM::        grad.step =  -0.321175614104886     
   ------- Leaving GDM -- hopefully with a step in the right direction! --------
 
   20    -346.6569907263      4.52E-01  Gap = -17.51 eV  Descent step
 
   ------------------- Entering Geometric Direct Minimization ------------------
   GDM::trust : actual energy change is        0.461817190186537     
   GDM::trust : predicted energy change was   -0.699788161191992     
   GDM::trust : updated trust radius is        0.108900000000000     
   GDM::search:  On step            1 .  The current bracket is:
       left   : x =  0.0000E+00, e =      -346.6569907263, g = -0.3933E+00
       current: x =  0.8166E+00, e =      -346.1951735361, g =  0.1569E+01
       right  : x =  0.1000E+04, e =      1000.0000000000, g =  0.1000E+04
       next   : x =  0.1675E+00
   GDM::      : max rotation in step is        8.899580546465091E-002
   ------- Leaving GDM -- hopefully with a step in the right direction! --------
 
   21    -346.1951735361      1.03E-01  Gap = -17.51 eV  Line search: overstep
 
   ------------------- Entering Geometric Direct Minimization ------------------
   GDM::trust : actual energy change is       -3.733740555207987E-002
   GDM::trust : predicted energy change was   -0.699788161191992     
   GDM::trust : updated trust radius is        0.108900000000000     
   GDM:         diagonal hessian shift is      0.000000000000000E+000
   GDM::PreWSS: input subspace size is                 19
   GDM::PreWSS: working subspace size set to           18
   GDM::PrEWSS: # of linearly dependent vectors =            0
   GDM::PrEWSS: Max dev from orthonormality =   1.537436844500917E-012
   GDM::BFGS:   lowest Hinv e-value    9.168611471790163E-002
   GDM::BFGS:   highest Hinv e-value    6.47694894977863     
   GDM::      : max scaling in EWCs is          2.82842712474619     
   GDM::      : max rotation in step is        0.105516891521041     
   GDM::        grad.step =  -3.339753141383944E-002
   ------- Leaving GDM -- hopefully with a step in the right direction! --------
 
   22    -346.6943281318      1.71E-01  Gap = -17.51 eV  Descent step
 
   ------------------- Entering Geometric Direct Minimization ------------------
   GDM::trust : actual energy change is       -2.512460323680443E-002
   GDM::trust : predicted energy change was   -1.639380587418128E-002
   GDM::trust : updated trust radius is        0.330000000000000     
   GDM:         diagonal hessian shift is      0.000000000000000E+000
   GDM::PreWSS: input subspace size is                 19
   GDM::PreWSS: working subspace size set to           18
   GDM::PrEWSS: # of linearly dependent vectors =            0
   GDM::PrEWSS: Max dev from orthonormality =   2.171894608604674E-012
   GDM::BFGS:   lowest Hinv e-value    7.783352086255062E-002
   GDM::BFGS:   highest Hinv e-value    8.09841113789529     
   GDM::      : max scaling in EWCs is          2.82842712474619     
   GDM::      : max rotation in step is        0.415256365045195     
   GDM::        grad.step =  -0.138432156834149     
   ------- Leaving GDM -- hopefully with a step in the right direction! --------
 
   23    -346.7194527351      2.74E-01  Gap = -17.51 eV  Descent step
 
   ------------------- Entering Geometric Direct Minimization ------------------
   GDM::trust : actual energy change is        3.733228243470421E-002
   GDM::trust : predicted energy change was   -0.446322859234702     
   GDM::trust : updated trust radius is        0.108900000000000     
   GDM::search:  On step            1 .  The current bracket is:
       left   : x =  0.0000E+00, e =      -346.7194527351, g = -0.2105E+00
       current: x =  0.6576E+00, e =      -346.6821204526, g =  0.3261E+00
       right  : x =  0.1000E+04, e =      1000.0000000000, g =  0.1000E+04
       next   : x =  0.2590E+00
   GDM::      : max rotation in step is        0.163528056333355     
   ------- Leaving GDM -- hopefully with a step in the right direction! --------
 
   24    -346.6821204526      6.00E-02  Gap = -17.51 eV  Line search: overstep
 
   ------------------- Entering Geometric Direct Minimization ------------------
   GDM::trust : actual energy change is       -2.832493738060293E-002
   GDM::trust : predicted energy change was   -0.446322859234702     
   GDM::trust : updated trust radius is        0.108900000000000     
   GDM:         diagonal hessian shift is      0.000000000000000E+000
   GDM::PreWSS: input subspace size is                 19
   GDM::PreWSS: working subspace size set to           18
   GDM::PrEWSS: # of linearly dependent vectors =            0
   GDM::PrEWSS: Max dev from orthonormality =   2.581043018201612E-012
   GDM::BFGS:   lowest Hinv e-value    8.799186314277263E-002
   GDM::BFGS:   highest Hinv e-value    11.7080189981703     
   GDM::      : max scaling in EWCs is          2.82842712474619     
   GDM::      : max rotation in step is        0.192274192951634     
   GDM::        grad.step =  -7.527322714018268E-002
   ------- Leaving GDM -- hopefully with a step in the right direction! --------
 
   25    -346.7477776725      4.81E-01  Gap = -17.51 eV  Descent step
 
   ------------------- Entering Geometric Direct Minimization ------------------
   GDM::trust : actual energy change is       -5.627953908464178E-002
   GDM::trust : predicted energy change was   -5.356823872001370E-002
   GDM::trust : updated trust radius is        0.330000000000000     
   GDM:         diagonal hessian shift is      0.000000000000000E+000
   GDM::PreWSS: input subspace size is                 19
   GDM::PreWSS: working subspace size set to           18
   GDM::PrEWSS: # of linearly dependent vectors =            0
   GDM::PrEWSS: Max dev from orthonormality =   2.579105332078946E-012
   GDM::BFGS:   lowest Hinv e-value    8.279465647218845E-002
   GDM::BFGS:   highest Hinv e-value    14.9496065031387     
   GDM::      : max scaling in EWCs is          2.82842712474619     
   GDM::      : max rotation in step is        0.875060822372878     
   GDM::        grad.step =  -0.228395753420612     
   ------- Leaving GDM -- hopefully with a step in the right direction! --------
 
   26    -346.8040572115      6.49E-01  Gap = -17.51 eV  Descent step
 
   ------------------- Entering Geometric Direct Minimization ------------------
   GDM::trust : actual energy change is       -0.128848587548191     
   GDM::trust : predicted energy change was   -0.239256514379851     
   GDM::trust : updated trust radius is        0.330000000000000     
   GDM:         diagonal hessian shift is      0.000000000000000E+000
   GDM::PreWSS: input subspace size is                 19
   GDM::PreWSS: working subspace size set to           18
   GDM::PrEWSS: # of linearly dependent vectors =            0
   GDM::PrEWSS: Max dev from orthonormality =   1.551807293775909E-012
   GDM::BFGS:   lowest Hinv e-value    0.102259155715688     
   GDM::BFGS:   highest Hinv e-value    11.5529502754752     
   GDM::      : max scaling in EWCs is          2.82842712474619     
   GDM::      : max rotation in step is        0.430383867895309     
   GDM::        grad.step =  -0.214062976466690     
   ------- Leaving GDM -- hopefully with a step in the right direction! --------
 
   27    -346.9329057991      2.99E-01  Gap = 149243.21 eV  Descent step
 
   ------------------- Entering Geometric Direct Minimization ------------------
   GDM::trust : actual energy change is        0.355175682681931     
   GDM::trust : predicted energy change was   -0.442509297503578     
   GDM::trust : updated trust radius is        0.108900000000000     
   GDM::search:  On step            1 .  The current bracket is:
       left   : x =  0.0000E+00, e =      -346.9329057991, g = -0.2916E+00
       current: x =  0.7342E+00, e =      -346.5777301164, g =  0.1260E+01
       right  : x =  0.1000E+04, e =      1000.0000000000, g =  0.1000E+04
       next   : x =  0.1380E+00
   GDM::      : max rotation in step is        8.092322113426832E-002
   ------- Leaving GDM -- hopefully with a step in the right direction! --------
 
   28    -346.5777301164      1.20E-01  Gap = -17.51 eV  Line search: overstep
 
   ------------------- Entering Geometric Direct Minimization ------------------
   GDM::trust : actual energy change is       -2.270222628573038E-002
   GDM::trust : predicted energy change was   -0.442509297503578     
   GDM::trust : updated trust radius is        0.108900000000000     
   GDM:         diagonal hessian shift is      0.000000000000000E+000
   GDM::PreWSS: input subspace size is                 19
   GDM::PreWSS: working subspace size set to           18
   GDM::PrEWSS: # of linearly dependent vectors =            0
   GDM::PrEWSS: Max dev from orthonormality =   5.845879336163762E-013
   GDM::BFGS:   lowest Hinv e-value    0.119808678089907     
   GDM::BFGS:   highest Hinv e-value    9.90511287538721     
   GDM::      : max scaling in EWCs is          2.82842712474619     
   GDM::      : max rotation in step is       -0.107299423262382     
   GDM::        grad.step =  -1.568818571753938E-002
   ------- Leaving GDM -- hopefully with a step in the right direction! --------
 
   29    -346.9556080254      6.38E-02  Gap = -17.51 eV  Descent step
 
   ------------------- Entering Geometric Direct Minimization ------------------
   GDM::trust : actual energy change is        2.680174832846660E-003
   GDM::trust : predicted energy change was   -2.776985004336385E-002
   GDM::trust : updated trust radius is        0.108900000000000     
   GDM::search:  On step            1 .  The current bracket is:
       left   : x =  0.0000E+00, e =      -346.9556080254, g = -0.8269E-01
       current: x =  0.1897E+00, e =      -346.9529278505, g =  0.1090E+00
       right  : x =  0.1000E+04, e =      1000.0000000000, g =  0.1000E+04
       next   : x =  0.8102E-01
   GDM::      : max rotation in step is       -4.582154392351939E-002
   ------- Leaving GDM -- hopefully with a step in the right direction! --------
 
   30    -346.9529278505      1.90E-02  Gap = -17.51 eV  Line search: overstep
 
   ------------------- Entering Geometric Direct Minimization ------------------
   GDM::trust : actual energy change is       -3.322874201728609E-003
   GDM::trust : predicted energy change was   -2.776985004336385E-002
   GDM::trust : updated trust radius is        0.108900000000000     
   GDM:         diagonal hessian shift is      0.000000000000000E+000
   GDM::PreWSS: input subspace size is                 19
   GDM::PreWSS: working subspace size set to           18
   GDM::PrEWSS: # of linearly dependent vectors =            0
   GDM::PrEWSS: Max dev from orthonormality =   9.077946727664710E-013
   GDM::BFGS:   lowest Hinv e-value    0.104419458518317     
   GDM::BFGS:   highest Hinv e-value    9.51228472845676     
   GDM::      : max scaling in EWCs is          2.82842712474619     
   GDM::      : max rotation in step is       -0.118205226073654     
   GDM::        grad.step =  -1.861443222411389E-002
   ------- Leaving GDM -- hopefully with a step in the right direction! --------
 
   31    -346.9589308996      6.79E-02  Gap = -17.51 eV  Descent step
 
   ------------------- Entering Geometric Direct Minimization ------------------
   GDM::trust : actual energy change is        2.025067446191997E-002
   GDM::trust : predicted energy change was   -5.398715704983110E-002
   GDM::trust : updated trust radius is        0.108900000000000     
   GDM::search:  On step            1 .  The current bracket is:
       left   : x =  0.0000E+00, e =      -346.9589308996, g = -0.8839E-01
       current: x =  0.2106E+00, e =      -346.9386802251, g =  0.2779E+00
       right  : x =  0.1000E+04, e =      1000.0000000000, g =  0.1000E+04
       next   : x =  0.5043E-01
   GDM::      : max rotation in step is       -2.830718035922409E-002
   ------- Leaving GDM -- hopefully with a step in the right direction! --------
 
   32    -346.9386802251      4.02E-02  Gap = -17.51 eV  Line search: overstep
 
   ------------------- Entering Geometric Direct Minimization ------------------
   GDM::trust : actual energy change is       -2.221879326668841E-003
   GDM::trust : predicted energy change was   -5.398715704983110E-002
   GDM::trust : updated trust radius is        0.108900000000000     
   GDM:         diagonal hessian shift is      0.000000000000000E+000
   GDM::PreWSS: input subspace size is                 19
   GDM::PreWSS: working subspace size set to           18
   GDM::PrEWSS: # of linearly dependent vectors =            0
   GDM::PrEWSS: Max dev from orthonormality =   4.927291213929763E-013
   GDM::BFGS:   lowest Hinv e-value    0.106978245787497     
   GDM::BFGS:   highest Hinv e-value    9.68974967025512     
   GDM::trust : dogleg step length is          0.108900000000000     
   GDM::      : max scaling in EWCs is          2.82842712474619     
   GDM::      : max rotation in step is       -0.133672314858104     
   GDM::        grad.step =  -1.146332672794139E-002
   ------- Leaving GDM -- hopefully with a step in the right direction! --------
 
   33    -346.9611527789      6.00E-02  Gap = -17.51 eV  Dog-leg BFGS step
 
   ------------------- Entering Geometric Direct Minimization ------------------
   GDM::trust : actual energy change is        2.263729519881963E-003
   GDM::trust : predicted energy change was   -2.802791059464549E-002
   GDM::trust : updated trust radius is        3.593700000000000E-002
   GDM::search:  On step            1 .  The current bracket is:
       left   : x =  0.0000E+00, e =      -346.9611527789, g = -0.5447E-01
       current: x =  0.2104E+00, e =      -346.9588890494, g =  0.7591E-01
       right  : x =  0.1000E+04, e =      1000.0000000000, g =  0.1000E+04
       next   : x =  0.8787E-01
   GDM::      : max rotation in step is       -5.581420342550412E-002
   ------- Leaving GDM -- hopefully with a step in the right direction! --------
 
   34    -346.9588890494      2.01E-02  Gap = -17.51 eV  Line search: overstep
 
   ------------------- Entering Geometric Direct Minimization ------------------
   GDM::trust : actual energy change is       -2.405515346936227E-003
   GDM::trust : predicted energy change was   -2.802791059464549E-002
   GDM::trust : updated trust radius is        3.593700000000000E-002
   GDM:         diagonal hessian shift is      0.000000000000000E+000
   GDM::PreWSS: input subspace size is                 19
   GDM::PreWSS: working subspace size set to           18
   GDM::PrEWSS: # of linearly dependent vectors =            0
   GDM::PrEWSS: Max dev from orthonormality =   1.270563515509693E-012
   GDM::BFGS:   lowest Hinv e-value    9.990974613602793E-002
   GDM::BFGS:   highest Hinv e-value    9.15819618340813     
   GDM::      : max scaling in EWCs is          2.82842712474619     
   GDM::      : max rotation in step is       -4.067846974370146E-002
   GDM::        grad.step =  -5.784554479482978E-003
   ------- Leaving GDM -- hopefully with a step in the right direction! --------
 
   35    -346.9635582942      6.70E-02  Gap = -17.51 eV  Descent step
 
   ------------------- Entering Geometric Direct Minimization ------------------
   GDM::trust : actual energy change is       -1.375878268845554E-003
   GDM::trust : predicted energy change was   -6.514385119872432E-003
   GDM::trust : updated trust radius is        0.330000000000000     
   GDM:         diagonal hessian shift is      0.000000000000000E+000
   GDM::PreWSS: input subspace size is                 19
   GDM::PreWSS: working subspace size set to           18
   GDM::PrEWSS: # of linearly dependent vectors =            0
   GDM::PrEWSS: Max dev from orthonormality =   3.215462618388898E-012
   GDM::BFGS:   lowest Hinv e-value    0.101615752811978     
   GDM::BFGS:   highest Hinv e-value    9.50180454735873     
   GDM::      : max scaling in EWCs is          2.82842712474619     
   GDM::      : max rotation in step is       -0.194888535482427     
   GDM::        grad.step =  -1.686584667915419E-002
   ------- Leaving GDM -- hopefully with a step in the right direction! --------
 
   36    -346.9649341725      7.16E-02  Gap = -17.51 eV  Normal BFGS step
 
   ------------------- Entering Geometric Direct Minimization ------------------
   GDM::trust : actual energy change is       -1.201547845880668E-002
   GDM::trust : predicted energy change was   -2.529877001873129E-002
   GDM::trust : updated trust radius is        0.330000000000000     
   GDM:         diagonal hessian shift is      0.000000000000000E+000
   GDM::PreWSS: input subspace size is                 19
   GDM::PreWSS: working subspace size set to           18
   GDM::PrEWSS: # of linearly dependent vectors =            0
   GDM::PrEWSS: Max dev from orthonormality =   3.748803351077967E-012
   GDM::BFGS:   lowest Hinv e-value    0.111027361508939     
   GDM::BFGS:   highest Hinv e-value    8.93765335486313     
   GDM::trust : dogleg step length is          0.330000000000000     
   GDM::      : max scaling in EWCs is          2.82842712474619     
   GDM::      : max rotation in step is        0.401280090244440     
   GDM::        grad.step =  -2.763997424257755E-002
   ------- Leaving GDM -- hopefully with a step in the right direction! --------
 
   37    -346.9769496510      8.40E-02  Gap = -17.51 eV  Dog-leg BFGS step
 
   ------------------- Entering Geometric Direct Minimization ------------------
   GDM::trust : actual energy change is        8.468764875033230E-003
   GDM::trust : predicted energy change was   -4.250959872371373E-002
   GDM::trust : updated trust radius is        0.108900000000000     
   GDM::search:  On step            1 .  The current bracket is:
       left   : x =  0.0000E+00, e =      -346.9769496510, g = -0.3839E-01
       current: x =  0.7200E+00, e =      -346.9684808861, g =  0.8970E-01
       right  : x =  0.1000E+04, e =      1000.0000000000, g =  0.1000E+04
       next   : x =  0.2756E+00
   GDM::      : max rotation in step is        0.153582922437274     
   ------- Leaving GDM -- hopefully with a step in the right direction! --------
 
   38    -346.9684808861      2.76E-02  Gap = -17.51 eV  Line search: overstep
 
   ------------------- Entering Geometric Direct Minimization ------------------
   GDM::trust : actual energy change is       -7.737113237283211E-003
   GDM::trust : predicted energy change was   -4.250959872371373E-002
   GDM::trust : updated trust radius is        0.108900000000000     
   GDM:         diagonal hessian shift is      0.000000000000000E+000
   GDM::PreWSS: input subspace size is                 19
   GDM::PreWSS: working subspace size set to           18
   GDM::PrEWSS: # of linearly dependent vectors =            0
   GDM::PrEWSS: Max dev from orthonormality =   1.016089989924751E-012
   GDM::BFGS:   lowest Hinv e-value    7.734560690352092E-002
   GDM::BFGS:   highest Hinv e-value    8.82740059567829     
   GDM::      : max scaling in EWCs is          2.82842712474619     
   GDM::      : max rotation in step is        0.146955085486654     
   GDM::        grad.step =  -2.292846733227700E-002
   ------- Leaving GDM -- hopefully with a step in the right direction! --------
 
   39    -346.9846867642      1.00E-01  Gap = -17.51 eV  Descent step
 
   ------------------- Entering Geometric Direct Minimization ------------------
   GDM::trust : actual energy change is       -1.448386458940831E-002
   GDM::trust : predicted energy change was   -6.218873741440769E-002
   GDM::trust : updated trust radius is        0.330000000000000     
   GDM:         diagonal hessian shift is      0.000000000000000E+000
   GDM::PreWSS: input subspace size is                 19
   GDM::PreWSS: working subspace size set to           18
   GDM::PrEWSS: # of linearly dependent vectors =            0
   GDM::PrEWSS: Max dev from orthonormality =   1.032592414351718E-012
   GDM::BFGS:   lowest Hinv e-value    6.765996201537117E-002
   GDM::BFGS:   highest Hinv e-value    19.5197524546757     
   GDM::      : max scaling in EWCs is          2.82842712474619     
   GDM::      : max rotation in step is        0.617792815560944     
   GDM::        grad.step =  -0.140773850033554     
   ------- Leaving GDM -- hopefully with a step in the right direction! --------
 
   40    -346.9991706288      2.82E-01  Gap = -17.51 eV  Descent step
 
   ------------------- Entering Geometric Direct Minimization ------------------
   GDM::trust : actual energy change is        0.217917456170539     
   GDM::trust : predicted energy change was   -0.753124307226283     
   GDM::trust : updated trust radius is        0.108900000000000     
   GDM::search:  On step            1 .  The current bracket is:
       left   : x =  0.0000E+00, e =      -346.9991706288, g = -0.1705E+00
       current: x =  0.8258E+00, e =      -346.7812531726, g =  0.6314E+00
       right  : x =  0.1000E+04, e =      1000.0000000000, g =  0.1000E+04
       next   : x =  0.1620E+00
   GDM::      : max rotation in step is        0.121231085985812     
   ------- Leaving GDM -- hopefully with a step in the right direction! --------
 
   41    -346.7812531726      9.42E-02  Gap = -17.51 eV  Line search: overstep
 
   ------------------- Entering Geometric Direct Minimization ------------------
   GDM::trust : actual energy change is       -1.485115606891441E-002
   GDM::trust : predicted energy change was   -0.753124307226283     
   GDM::trust : updated trust radius is        0.108900000000000     
   GDM:         diagonal hessian shift is      0.000000000000000E+000
   GDM::PreWSS: input subspace size is                 19
   GDM::PreWSS: working subspace size set to           18
   GDM::PrEWSS: # of linearly dependent vectors =            0
   GDM::PrEWSS: Max dev from orthonormality =   9.636631770337800E-013
   GDM::BFGS:   lowest Hinv e-value    0.105005810547830     
   GDM::BFGS:   highest Hinv e-value    23.1388919796673     
   GDM::      : max scaling in EWCs is          2.82842712474619     
   GDM::      : max rotation in step is        0.130171814888231     
   GDM::        grad.step =  -3.121895868790285E-002
   ------- Leaving GDM -- hopefully with a step in the right direction! --------
 
   42    -347.0140217849      1.24E-01  Gap = -17.51 eV  Descent step
 
   ------------------- Entering Geometric Direct Minimization ------------------
   GDM::trust : actual energy change is       -2.331051450033783E-002
   GDM::trust : predicted energy change was   -2.823514968500480E-002
   GDM::trust : updated trust radius is        0.330000000000000     
   GDM:         diagonal hessian shift is      0.000000000000000E+000
   GDM::PreWSS: input subspace size is                 19
   GDM::PreWSS: working subspace size set to           18
   GDM::PrEWSS: # of linearly dependent vectors =            0
   GDM::PrEWSS: Max dev from orthonormality =   2.058245934799530E-012
   GDM::BFGS:   lowest Hinv e-value    8.263870485982425E-002
   GDM::BFGS:   highest Hinv e-value    46.8452611169351     
   GDM::      : max scaling in EWCs is          2.82842712474619     
   GDM::      : max rotation in step is        0.764120432115840     
   GDM::        grad.step =  -0.136739410881045     
   ------- Leaving GDM -- hopefully with a step in the right direction! --------
 
   43    -347.0373322994      3.39E-01  Gap = -17.51 eV  Descent step
 
   ------------------- Entering Geometric Direct Minimization ------------------
   GDM::trust : actual energy change is        8.888226102641283E-002
   GDM::trust : predicted energy change was   -0.491834762841276     
   GDM::trust : updated trust radius is        0.108900000000000     
   GDM::search:  On step            1 .  The current bracket is:
       left   : x =  0.0000E+00, e =      -347.0373322994, g = -0.1531E+00
       current: x =  0.8931E+00, e =      -346.9484500383, g =  0.2212E+00
       right  : x =  0.1000E+04, e =      1000.0000000000, g =  0.1000E+04
       next   : x =  0.2706E+00
   GDM::      : max rotation in step is        0.231549958934232     
   ------- Leaving GDM -- hopefully with a step in the right direction! --------
 
   44    -346.9484500383      7.29E-02  Gap = -17.51 eV  Line search: overstep
 
   ------------------- Entering Geometric Direct Minimization ------------------
   GDM::trust : actual energy change is       -1.651159520736201E-002
   GDM::trust : predicted energy change was   -0.491834762841276     
   GDM::trust : updated trust radius is        0.108900000000000     
   GDM:         diagonal hessian shift is      0.000000000000000E+000
   GDM::PreWSS: input subspace size is                 19
   GDM::PreWSS: working subspace size set to           18
   GDM::PrEWSS: # of linearly dependent vectors =            0
   GDM::PrEWSS: Max dev from orthonormality =   2.178836971955533E-012
   GDM::BFGS:   lowest Hinv e-value    0.107011406738748     
   GDM::BFGS:   highest Hinv e-value    59.7575974448414     
   GDM::      : max scaling in EWCs is          2.82842712474619     
   GDM::      : max rotation in step is        9.546548244393414E-002
   GDM::        grad.step =  -4.845405098455503E-002
   ------- Leaving GDM -- hopefully with a step in the right direction! --------
 
   45    -347.0538438946      1.76E-01  Gap = -17.51 eV  Descent step
 
   ------------------- Entering Geometric Direct Minimization ------------------
   GDM::trust : actual energy change is       -1.440194548320051E-002
   GDM::trust : predicted energy change was   -4.771580135327377E-002
   GDM::trust : updated trust radius is        0.330000000000000     
   GDM:         diagonal hessian shift is      0.000000000000000E+000
   GDM::PreWSS: input subspace size is                 19
   GDM::PreWSS: working subspace size set to           18
   GDM::PrEWSS: # of linearly dependent vectors =            0
   GDM::PrEWSS: Max dev from orthonormality =   1.182956510525912E-012
   GDM::BFGS:   lowest Hinv e-value    0.114656227333773     
   GDM::BFGS:   highest Hinv e-value    56.8326011729284     
   GDM::      : max scaling in EWCs is          2.82842712474619     
   GDM::      : max rotation in step is        0.470046635474377     
   GDM::        grad.step =  -0.138744760952177     
   ------- Leaving GDM -- hopefully with a step in the right direction! --------
 
   46    -347.0682458401      2.74E-01  Gap = -17.51 eV  Descent step
 
   ------------------- Entering Geometric Direct Minimization ------------------
   GDM::trust : actual energy change is        0.150054992147489     
   GDM::trust : predicted energy change was   -0.421534466495929     
   GDM::trust : updated trust radius is        0.108900000000000     
   GDM::search:  On step            1 .  The current bracket is:
       left   : x =  0.0000E+00, e =      -347.0682458401, g = -0.1880E+00
       current: x =  0.7380E+00, e =      -346.9181908479, g =  0.4802E+00
       right  : x =  0.1000E+04, e =      1000.0000000000, g =  0.1000E+04
       next   : x =  0.1773E+00
   GDM::      : max rotation in step is        0.112909563417738     
   ------- Leaving GDM -- hopefully with a step in the right direction! --------
 
   47    -346.9181908479      7.95E-02  Gap = -17.51 eV  Line search: overstep
 
   ------------------- Entering Geometric Direct Minimization ------------------
   GDM::trust : actual energy change is       -1.494671682718263E-002
   GDM::trust : predicted energy change was   -0.421534466495929     
   GDM::trust : updated trust radius is        0.108900000000000     
   GDM:         diagonal hessian shift is      0.000000000000000E+000
   GDM::PreWSS: input subspace size is                 19
   GDM::PreWSS: working subspace size set to           18
   GDM::PrEWSS: # of linearly dependent vectors =            0
   GDM::PrEWSS: Max dev from orthonormality =   1.167690943937316E-012
   GDM::BFGS:   lowest Hinv e-value    0.124219432267609     
   GDM::BFGS:   highest Hinv e-value    59.5998515771852     
   GDM::      : max scaling in EWCs is          2.82842712474619     
   GDM::      : max rotation in step is        9.145296757189410E-002
   GDM::        grad.step =  -3.058076179674971E-002
   ------- Leaving GDM -- hopefully with a step in the right direction! --------
 
   48    -347.0831925569      1.01E-01  Gap = -17.51 eV  Descent step
 
   ------------------- Entering Geometric Direct Minimization ------------------
   GDM::trust : actual energy change is       -1.189379463113482E-002
   GDM::trust : predicted energy change was   -2.855446488887421E-002
   GDM::trust : updated trust radius is        0.330000000000000     
   GDM:         diagonal hessian shift is      0.000000000000000E+000
   GDM::PreWSS: input subspace size is                 19
   GDM::PreWSS: working subspace size set to           18
   GDM::PrEWSS: # of linearly dependent vectors =            0
   GDM::PrEWSS: Max dev from orthonormality =   1.286030310021502E-012
   GDM::BFGS:   lowest Hinv e-value    0.124386102587938     
   GDM::BFGS:   highest Hinv e-value    58.7223357308491     
   GDM::      : max scaling in EWCs is          2.82842712474619     
   GDM::      : max rotation in step is       -0.504127892335360     
   GDM::        grad.step =  -0.118634348795212     
   ------- Leaving GDM -- hopefully with a step in the right direction! --------
 
   49    -347.0950863515      1.94E-01  Gap = -17.51 eV  Descent step
 
   ------------------- Entering Geometric Direct Minimization ------------------
   GDM::trust : actual energy change is        0.183944000249255     
   GDM::trust : predicted energy change was   -0.431847371812662     
   GDM::trust : updated trust radius is        0.108900000000000     
   GDM::search:  On step            1 .  The current bracket is:
       left   : x =  0.0000E+00, e =      -347.0950863515, g = -0.1650E+00
       current: x =  0.7192E+00, e =      -346.9111423513, g =  0.5467E+00
       right  : x =  0.1000E+04, e =      1000.0000000000, g =  0.1000E+04
       next   : x =  0.1410E+00
   GDM::      : max rotation in step is       -9.882875692457245E-002
   ------- Leaving GDM -- hopefully with a step in the right direction! --------
 
   50    -346.9111423513      7.88E-02  Gap = -17.51 eV  Line search: overstep
 
   ------------------- Entering Geometric Direct Minimization ------------------
   GDM::trust : actual energy change is       -1.064055339605829E-002
   GDM::trust : predicted energy change was   -0.431847371812662     
   GDM::trust : updated trust radius is        0.108900000000000     
   GDM:         diagonal hessian shift is      0.000000000000000E+000
   GDM::PreWSS: input subspace size is                 19
   GDM::PreWSS: working subspace size set to           18
   GDM::PrEWSS: # of linearly dependent vectors =            0
   GDM::PrEWSS: Max dev from orthonormality =   2.363498285973265E-012
   GDM::BFGS:   lowest Hinv e-value    0.132011381676890     
   GDM::BFGS:   highest Hinv e-value    51.0095305178093     
   GDM::      : max scaling in EWCs is          2.82842712474619     
   GDM::      : max rotation in step is       -7.495025599411456E-002
   GDM::        grad.step =  -2.219773224730036E-002
   ------- Leaving GDM -- hopefully with a step in the right direction! --------
 
   51    -347.1057269049      7.14E-02  Gap = -17.51 eV  Descent step
 
   ------------------- Entering Geometric Direct Minimization ------------------
   GDM::trust : actual energy change is       -8.235904465664134E-003
   GDM::trust : predicted energy change was   -2.672378520734218E-002
   GDM::trust : updated trust radius is        0.330000000000000     
   GDM:         diagonal hessian shift is      0.000000000000000E+000
   GDM::PreWSS: input subspace size is                 19
   GDM::PreWSS: working subspace size set to           18
   GDM::PrEWSS: # of linearly dependent vectors =            0
   GDM::PrEWSS: Max dev from orthonormality =   5.443482470335326E-012
   GDM::BFGS:   lowest Hinv e-value    0.116412710510439     
   GDM::BFGS:   highest Hinv e-value    47.2953722903335     
   GDM::      : max scaling in EWCs is          2.82842712474619     
   GDM::      : max rotation in step is       -0.525638410893610     
   GDM::        grad.step =  -0.118463877138168     
   ------- Leaving GDM -- hopefully with a step in the right direction! --------
 
   52    -347.1139628094      2.02E-01  Gap = -17.51 eV  Descent step
 
   ------------------- Entering Geometric Direct Minimization ------------------
   GDM::trust : actual energy change is        0.174848511535060     
   GDM::trust : predicted energy change was   -0.503466604923707     
   GDM::trust : updated trust radius is        0.108900000000000     
   GDM::search:  On step            1 .  The current bracket is:
       left   : x =  0.0000E+00, e =      -347.1139628094, g = -0.1659E+00
       current: x =  0.7143E+00, e =      -346.9391142978, g =  0.4984E+00
       right  : x =  0.1000E+04, e =      1000.0000000000, g =  0.1000E+04
       next   : x =  0.1442E+00
   GDM::      : max rotation in step is       -0.106148199891711     
   ------- Leaving GDM -- hopefully with a step in the right direction! --------
 
   53    -346.9391142978      6.91E-02  Gap = -17.51 eV  Line search: overstep
 
   ------------------- Entering Geometric Direct Minimization ------------------
   GDM::trust : actual energy change is       -1.043590307375553E-002
   GDM::trust : predicted energy change was   -0.503466604923707     
   GDM::trust : updated trust radius is        0.108900000000000     
   GDM:         diagonal hessian shift is      0.000000000000000E+000
   GDM::PreWSS: input subspace size is                 19
   GDM::PreWSS: working subspace size set to           18
   GDM::PrEWSS: # of linearly dependent vectors =            0
   GDM::PrEWSS: Max dev from orthonormality =   1.117593517729887E-011
   GDM::BFGS:   lowest Hinv e-value    0.131405516793821     
   GDM::BFGS:   highest Hinv e-value    40.6872204841386     
   GDM::      : max scaling in EWCs is          2.82842712474619     
   GDM::      : max rotation in step is       -0.159905820092810     
   GDM::        grad.step =  -2.419474954126170E-002
   ------- Leaving GDM -- hopefully with a step in the right direction! --------
 
   54    -347.1243987125      1.45E-01  Gap = -17.51 eV  Descent step
 
   ------------------- Entering Geometric Direct Minimization ------------------
   GDM::trust : actual energy change is       -1.723547480889920E-002
   GDM::trust : predicted energy change was   -2.840311591042719E-002
   GDM::trust : updated trust radius is        0.330000000000000     
   GDM:         diagonal hessian shift is      0.000000000000000E+000
   GDM::PreWSS: input subspace size is                 19
   GDM::PreWSS: working subspace size set to           18
   GDM::PrEWSS: # of linearly dependent vectors =            0
   GDM::PrEWSS: Max dev from orthonormality =   4.105594336722973E-012
   GDM::BFGS:   lowest Hinv e-value    7.084249671028321E-002
   GDM::BFGS:   highest Hinv e-value    55.2642455406977     
   GDM::      : max scaling in EWCs is          2.82842712474619     
   GDM::      : max rotation in step is       -0.561946994473621     
   GDM::        grad.step =  -0.133344180906604     
   ------- Leaving GDM -- hopefully with a step in the right direction! --------
 
   55    -347.1416341873      3.11E-01  Gap = -17.51 eV  Descent step
 
   ------------------- Entering Geometric Direct Minimization ------------------
   GDM::trust : actual energy change is        2.472920645260501E-002
   GDM::trust : predicted energy change was   -0.685313890371321     
   GDM::trust : updated trust radius is        0.108900000000000     
   GDM::search:  On step            1 .  The current bracket is:
       left   : x =  0.0000E+00, e =      -347.1416341873, g = -0.1894E+00
       current: x =  0.7041E+00, e =      -347.1169049808, g =  0.1828E+00
       right  : x =  0.1000E+04, e =      1000.0000000000, g =  0.1000E+04
       next   : x =  0.2970E+00
   GDM::      : max rotation in step is       -0.237017637639204     
   ------- Leaving GDM -- hopefully with a step in the right direction! --------
 
   56    -347.1169049808      6.66E-02  Gap = -17.51 eV  Line search: overstep
 
   ------------------- Entering Geometric Direct Minimization ------------------
   GDM::trust : actual energy change is       -2.562811179149094E-002
   GDM::trust : predicted energy change was   -0.685313890371321     
   GDM::trust : updated trust radius is        0.108900000000000     
   GDM:         diagonal hessian shift is      0.000000000000000E+000
   GDM::PreWSS: input subspace size is                 19
   GDM::PreWSS: working subspace size set to           18
   GDM::PrEWSS: # of linearly dependent vectors =            0
   GDM::PrEWSS: Max dev from orthonormality =   1.007527915264372E-011
   GDM::BFGS:   lowest Hinv e-value    0.124855451415910     
   GDM::BFGS:   highest Hinv e-value    55.8605145377224     
   GDM::      : max scaling in EWCs is          2.82842712474619     
   GDM::      : max rotation in step is       -0.120179110290259     
   GDM::        grad.step =  -5.778543846237244E-002
   ------- Leaving GDM -- hopefully with a step in the right direction! --------
 
   57    -347.1672622991      2.81E-01  Gap = -17.51 eV  Descent step
 
   ------------------- Entering Geometric Direct Minimization ------------------
   GDM::trust : actual energy change is       -4.391047596521958E-002
   GDM::trust : predicted energy change was   -3.701910160430966E-002
   GDM::trust : updated trust radius is        0.330000000000000     
   GDM:         diagonal hessian shift is      0.000000000000000E+000
   GDM::PreWSS: input subspace size is                 19
   GDM::PreWSS: working subspace size set to           18
   GDM::PrEWSS: # of linearly dependent vectors =            0
   GDM::PrEWSS: Max dev from orthonormality =   1.224929879750647E-011
   GDM::BFGS:   lowest Hinv e-value    0.142342951921932     
   GDM::BFGS:   highest Hinv e-value    60.7593637526824     
   GDM::      : max scaling in EWCs is          2.82842712474619     
   GDM::      : max rotation in step is       -0.868225578744564     
   GDM::        grad.step =  -0.160975217811812     
   ------- Leaving GDM -- hopefully with a step in the right direction! --------
 
   58    -347.2111727750      4.54E-01  Gap = -17.51 eV  Descent step
 
   ------------------- Entering Geometric Direct Minimization ------------------
   GDM::trust : actual energy change is       -8.831265575173575E-002
   GDM::trust : predicted energy change was   -0.183273601673233     
   GDM::trust : updated trust radius is        0.330000000000000     
   GDM:         diagonal hessian shift is      0.000000000000000E+000
   GDM::PreWSS: input subspace size is                 19
   GDM::PreWSS: working subspace size set to           18
   GDM::PrEWSS: # of linearly dependent vectors =            0
   GDM::PrEWSS: Max dev from orthonormality =   4.663486610767542E-012
   GDM::BFGS:   lowest Hinv e-value    0.286978090101078     
   GDM::BFGS:   highest Hinv e-value    71.2955643807409     
   GDM::      : max scaling in EWCs is          2.82842712474619     
   GDM::      : max rotation in step is       -0.472319410446144     
   GDM::        grad.step =  -0.128805030731022     
   ------- Leaving GDM -- hopefully with a step in the right direction! --------
 
   59    -347.2994854308      2.49E-01  Gap = -17.51 eV  Descent step
 
   ------------------- Entering Geometric Direct Minimization ------------------
   GDM::trust : actual energy change is        0.162268384253707     
   GDM::trust : predicted energy change was   -0.215355881303156     
   GDM::trust : updated trust radius is        0.108900000000000     
   GDM::search:  On step            1 .  The current bracket is:
       left   : x =  0.0000E+00, e =      -347.2994854308, g = -0.2264E+00
       current: x =  0.5690E+00, e =      -347.1372170465, g =  0.7723E+00
       right  : x =  0.1000E+04, e =      1000.0000000000, g =  0.1000E+04
       next   : x =  0.1259E+00
   GDM::      : max rotation in step is       -0.104504762450678     
   ------- Leaving GDM -- hopefully with a step in the right direction! --------
 
   60    -347.1372170465      8.32E-02  Gap = -17.51 eV  Line search: overstep
 
   ------------------- Entering Geometric Direct Minimization ------------------
   GDM::trust : actual energy change is       -1.489275982606841E-002
   GDM::trust : predicted energy change was   -0.215355881303156     
   GDM::trust : updated trust radius is        0.108900000000000     
   GDM:         diagonal hessian shift is      0.000000000000000E+000
   GDM::PreWSS: input subspace size is                 19
   GDM::PreWSS: working subspace size set to           18
   GDM::PrEWSS: # of linearly dependent vectors =            0
   GDM::PrEWSS: Max dev from orthonormality =   7.141292765466822E-012
   GDM::BFGS:   lowest Hinv e-value    0.191652508394143     
   GDM::BFGS:   highest Hinv e-value    63.4858199858085     
   GDM::      : max scaling in EWCs is          2.82842712474619     
   GDM::      : max rotation in step is        5.782157380191837E-002
   GDM::        grad.step =  -1.371880522351613E-002
   ------- Leaving GDM -- hopefully with a step in the right direction! --------
 
   61    -347.3143781906      4.29E-02  Gap = -17.51 eV  Descent step
 
   ------------------- Entering Geometric Direct Minimization ------------------
   GDM::trust : actual energy change is       -2.483387710753959E-003
   GDM::trust : predicted energy change was   -2.055498293272735E-002
   GDM::trust : updated trust radius is        0.330000000000000     
   GDM:         diagonal hessian shift is      0.000000000000000E+000
   GDM::PreWSS: input subspace size is                 19
   GDM::PreWSS: working subspace size set to           18
   GDM::PrEWSS: # of linearly dependent vectors =            0
   GDM::PrEWSS: Max dev from orthonormality =   6.568232069348312E-012
   GDM::BFGS:   lowest Hinv e-value    0.187840460381132     
   GDM::BFGS:   highest Hinv e-value    63.0382876452180     
   GDM::trust : dogleg step length is          0.330000000000000     
   GDM::      : max scaling in EWCs is          2.48678037837663     
   GDM::      : max rotation in step is        0.272477155262150     
   GDM::        grad.step =  -1.746686655238118E-002
   ------- Leaving GDM -- hopefully with a step in the right direction! --------
 
   62    -347.3168615783      1.33E-01  Gap = -17.51 eV  Dog-leg BFGS step
 
   ------------------- Entering Geometric Direct Minimization ------------------
   GDM::trust : actual energy change is        4.011583748911107E-002
   GDM::trust : predicted energy change was   -2.684472339041187E-002
   GDM::trust : updated trust radius is        0.108900000000000     
   GDM::search:  On step            1 .  The current bracket is:
       left   : x =  0.0000E+00, e =      -347.3168615783, g = -0.3581E-01
       current: x =  0.4877E+00, e =      -347.2767457408, g =  0.1946E+00
       right  : x =  0.1000E+04, e =      1000.0000000000, g =  0.1000E+04
       next   : x =  0.7398E-01
   GDM::      : max rotation in step is        4.132596921904717E-002
   ------- Leaving GDM -- hopefully with a step in the right direction! --------
 
   63    -347.2767457408      6.01E-02  Gap = -17.51 eV  Line search: overstep
 
   ------------------- Entering Geometric Direct Minimization ------------------
   GDM::trust : actual energy change is       -1.288265927939847E-003
   GDM::trust : predicted energy change was   -2.684472339041187E-002
   GDM::trust : updated trust radius is        0.108900000000000     
   GDM:         diagonal hessian shift is      0.000000000000000E+000
   GDM::PreWSS: input subspace size is                 19
   GDM::PreWSS: working subspace size set to           18
   GDM::PrEWSS: # of linearly dependent vectors =            0
   GDM::PrEWSS: Max dev from orthonormality =   1.773147600969693E-011
   GDM::BFGS:   lowest Hinv e-value    0.258275694936689     
   GDM::BFGS:   highest Hinv e-value    7.92745086167596     
   GDM::      : max scaling in EWCs is          2.35950139745307     
   GDM::      : max rotation in step is       -0.125922166652941     
   GDM::        grad.step =  -1.815498130230802E-002
   ------- Leaving GDM -- hopefully with a step in the right direction! --------
 
   64    -347.3181498442      9.66E-02  Gap = -17.51 eV  Descent step
 
   ------------------- Entering Geometric Direct Minimization ------------------
   GDM::trust : actual energy change is        8.118622756455807E-003
   GDM::trust : predicted energy change was   -2.348080886092369E-002
   GDM::trust : updated trust radius is        0.108900000000000     
   GDM::search:  On step            1 .  The current bracket is:
       left   : x =  0.0000E+00, e =      -347.3181498442, g = -0.1133E+00
       current: x =  0.1602E+00, e =      -347.3100312215, g =  0.2133E+00
       right  : x =  0.1000E+04, e =      1000.0000000000, g =  0.1000E+04
       next   : x =  0.5534E-01
   GDM::      : max rotation in step is       -4.350591902079959E-002
   ------- Leaving GDM -- hopefully with a step in the right direction! --------
 
   65    -347.3100312215      6.06E-02  Gap = -17.51 eV  Line search: overstep
 
   ------------------- Entering Geometric Direct Minimization ------------------
   GDM::trust : actual energy change is       -3.130542382450585E-003
   GDM::trust : predicted energy change was   -2.348080886092369E-002
   GDM::trust : updated trust radius is        0.108900000000000     
   GDM:         diagonal hessian shift is      0.000000000000000E+000
   GDM::PreWSS: input subspace size is                 19
   GDM::PreWSS: working subspace size set to           18
   GDM::PrEWSS: # of linearly dependent vectors =            0
   GDM::PrEWSS: Max dev from orthonormality =   7.856576500486767E-012
   GDM::BFGS:   lowest Hinv e-value    0.188923239649515     
   GDM::BFGS:   highest Hinv e-value    7.46033745816685     
   GDM::      : max scaling in EWCs is          2.36057034281886     
   GDM::      : max rotation in step is        4.340551561722191E-002
   GDM::        grad.step =  -3.829685483750421E-003
   ------- Leaving GDM -- hopefully with a step in the right direction! --------
 
   66    -347.3212803866      1.48E-02  Gap = -17.51 eV  Normal BFGS step
 
   ------------------- Entering Geometric Direct Minimization ------------------
   GDM::trust : actual energy change is       -9.896502800188500E-004
   GDM::trust : predicted energy change was   -5.744528225625637E-003
   GDM::trust : updated trust radius is        0.330000000000000     
   GDM:         diagonal hessian shift is      0.000000000000000E+000
   GDM::PreWSS: input subspace size is                 19
   GDM::PreWSS: working subspace size set to           18
   GDM::PrEWSS: # of linearly dependent vectors =            0
   GDM::PrEWSS: Max dev from orthonormality =   4.856018365195780E-012
   GDM::BFGS:   lowest Hinv e-value    0.187894957862268     
   GDM::BFGS:   highest Hinv e-value    7.11382590369560     
   GDM::      : max scaling in EWCs is          2.55497070889733     
   GDM::      : max rotation in step is        4.108349671331916E-002
   GDM::        grad.step =  -2.668044046257272E-003
   ------- Leaving GDM -- hopefully with a step in the right direction! --------
 
   67    -347.3222700369      2.37E-02  Gap = -17.51 eV  Normal BFGS step
 
   ------------------- Entering Geometric Direct Minimization ------------------
   GDM::trust : actual energy change is        3.529893500626713E-004
   GDM::trust : predicted energy change was   -4.002066069385911E-003
   GDM::trust : updated trust radius is        0.108900000000000     
   GDM::search:  On step            1 .  The current bracket is:
       left   : x =  0.0000E+00, e =      -347.3222700369, g = -0.2665E-01
       current: x =  0.1001E+00, e =      -347.3219170475, g =  0.3326E-01
       right  : x =  0.1000E+04, e =      1000.0000000000, g =  0.1000E+04
       next   : x =  0.4420E-01
   GDM::      : max rotation in step is        1.814157018901635E-002
   ------- Leaving GDM -- hopefully with a step in the right direction! --------
 
   68    -347.3219170475      1.83E-02  Gap = -17.51 eV  Line search: overstep
 
   ------------------- Entering Geometric Direct Minimization ------------------
   GDM::trust : actual energy change is       -5.845406521984842E-004
   GDM::trust : predicted energy change was   -4.002066069385911E-003
   GDM::trust : updated trust radius is        0.108900000000000     
   GDM:         diagonal hessian shift is      0.000000000000000E+000
   GDM::PreWSS: input subspace size is                 19
   GDM::PreWSS: working subspace size set to           18
   GDM::PrEWSS: # of linearly dependent vectors =            0
   GDM::PrEWSS: Max dev from orthonormality =   2.621512382172675E-011
   GDM::BFGS:   lowest Hinv e-value    0.188886540317849     
   GDM::BFGS:   highest Hinv e-value    4.13416604075012     
   GDM::      : max scaling in EWCs is          2.58764108125022     
   GDM::      : max rotation in step is        4.148693994378141E-002
   GDM::        grad.step =  -1.708220249880600E-003
   ------- Leaving GDM -- hopefully with a step in the right direction! --------
 
   69    -347.3228545776      7.96E-03  Gap = -17.51 eV  Normal BFGS step
 
   ------------------- Entering Geometric Direct Minimization ------------------
[...]
   GDM::PreWSS: working subspace size set to            9
   GDM::PrEWSS: # of linearly dependent vectors =            6
   GDM::PrEWSS: Max dev from orthonormality =   1.409969791962840E-009
   GDM::BFGS:   lowest Hinv e-value    0.167955410790289     
   GDM::BFGS:   highest Hinv e-value    2.94157412626477     
   GDM::      : max scaling in EWCs is          2.35128818700533     
   GDM::      : max rotation in step is        4.336954914561229E-006
   GDM::        grad.step =  -3.440144931465388E-011
   ------- Leaving GDM -- hopefully with a step in the right direction! --------
 
   12    -347.4247065869      1.91E-06  Gap = 0.00 eV  Normal BFGS step
 
   ------------------- Entering Geometric Direct Minimization ------------------
   GDM::trust : actual energy change is       -1.892885848064907E-011
   GDM::trust : predicted energy change was   -5.160217397198081E-011
   GDM::trust : updated trust radius is        0.330000000000000     
   GDM:         diagonal hessian shift is      0.000000000000000E+000
   GDM::PreWSS: input subspace size is                 10
   GDM::PreWSS: working subspace size set to           10
   GDM::PrEWSS: # of linearly dependent vectors =            7
   GDM::PrEWSS: Max dev from orthonormality =   1.318414613593610E-009
   GDM::BFGS:   lowest Hinv e-value    0.168125823801504     
   GDM::BFGS:   highest Hinv e-value    2.87799852609751     
   GDM::      : max scaling in EWCs is          2.35128941816608     
   GDM::      : max rotation in step is        4.629202052738273E-006
   GDM::        grad.step =  -1.007647797484764E-011
   ------- Leaving GDM -- hopefully with a step in the right direction! --------
 
   13    -347.4247065869      1.37E-06  Gap = 0.00 eV  Normal BFGS step
 
   ------------------- Entering Geometric Direct Minimization ------------------
   GDM::trust : actual energy change is       -2.955857780762017E-012
   GDM::trust : predicted energy change was   -1.511471696227145E-011
   GDM::trust : updated trust radius is        0.330000000000000     
   GDM:         diagonal hessian shift is      0.000000000000000E+000
   GDM::PreWSS: input subspace size is                 11
   GDM::PreWSS: working subspace size set to           11
   GDM::PrEWSS: # of linearly dependent vectors =            8
   GDM::PrEWSS: Max dev from orthonormality =   6.190588631993510E-010
   GDM::BFGS:   lowest Hinv e-value    0.168763188439536     
   GDM::BFGS:   highest Hinv e-value    3.78208369868720     
   GDM::      : max scaling in EWCs is          2.35128782202064     
   GDM::      : max rotation in step is        6.537381850271159E-006
   GDM::        grad.step =  -1.242017558139940E-011
   ------- Leaving GDM -- hopefully with a step in the right direction! --------
 
   14    -347.4247065869      2.24E-06  Gap = 0.00 eV  Normal BFGS step
 
   ------------------- Entering Geometric Direct Minimization ------------------
   GDM::trust : actual energy change is       -5.172751116333529E-012
   GDM::trust : predicted energy change was   -1.863026337209911E-011
   GDM::trust : updated trust radius is        0.330000000000000     
   GDM:         diagonal hessian shift is      0.000000000000000E+000
   GDM::PreWSS: input subspace size is                 12
   GDM::PreWSS: working subspace size set to           12
   GDM::PrEWSS: # of linearly dependent vectors =            9
   GDM::PrEWSS: Max dev from orthonormality =   1.378403068769130E-010
   GDM::BFGS:   lowest Hinv e-value    0.167412418814944     
   GDM::BFGS:   highest Hinv e-value    4.25413680918274     
   GDM::      : max scaling in EWCs is          2.35128655085993     
   GDM::      : max rotation in step is        2.828604765476597E-006
   GDM::        grad.step =  -4.164930023867716E-012
   ------- Leaving GDM -- hopefully with a step in the right direction! --------
 
   15    -347.4247065869      9.19E-07  Gap = 0.00 eV  Normal BFGS step
 
   ------------------- Entering Geometric Direct Minimization ------------------
   GDM::trust : actual energy change is       -2.557953848736361E-012
   GDM::trust : predicted energy change was   -6.247395035801574E-012
   GDM::trust : updated trust radius is        0.330000000000000     
   GDM:         diagonal hessian shift is      0.000000000000000E+000
   GDM::PreWSS: input subspace size is                 13
   GDM::PreWSS: working subspace size set to           13
   GDM::PrEWSS: # of linearly dependent vectors =           10
   GDM::PrEWSS: Max dev from orthonormality =   8.054488014053174E-010
   GDM::BFGS:   lowest Hinv e-value    0.168984342921246     
   GDM::BFGS:   highest Hinv e-value    4.85067681373462     
   GDM::      : max scaling in EWCs is          2.35128793747438     
   GDM::      : max rotation in step is        1.725963336608953E-006
   GDM::        grad.step =  -7.488284536653339E-013
   ------- Leaving GDM -- hopefully with a step in the right direction! --------
 
   16    -347.4247065869      3.33E-07  Gap = 0.00 eV  Normal BFGS step
 
   ------------------- Entering Geometric Direct Minimization ------------------
   GDM::trust : actual energy change is       -1.307398633798584E-012
   GDM::trust : predicted energy change was   -1.123242680498001E-012
   GDM::trust : updated trust radius is        0.330000000000000     
   GDM:         diagonal hessian shift is      0.000000000000000E+000
   GDM::PreWSS: input subspace size is                 14
   GDM::PreWSS: working subspace size set to           14
   GDM::PrEWSS: # of linearly dependent vectors =           11
   GDM::PrEWSS: Max dev from orthonormality =   2.171033474523965E-010
   GDM::BFGS:   lowest Hinv e-value    0.168088001114046     
   GDM::BFGS:   highest Hinv e-value    5.26422539182647     
   GDM::      : max scaling in EWCs is          2.35128815116626     
   GDM::      : max rotation in step is        3.295832300913052E-007
   GDM::        grad.step =  -4.658878171858158E-014
   ------- Leaving GDM -- hopefully with a step in the right direction! --------
 
   17    -347.4247065869      5.94E-08  Gap = 0.00 eV  Normal BFGS step
 
   ------------------- Entering Geometric Direct Minimization ------------------
   GDM::trust : actual energy change is        6.252776074688882E-013
   GDM::trust : predicted energy change was   -6.988317257787237E-014
   GDM::trust : updated trust radius is        0.108900000000000     
   GDM::WARNING energy changes are now smaller than effective accuracy.
   GDM::        calculation will continue, but THRESH should be increased
   GDM::        or SCF_CONVERGENCE decreased.
   GDM::        effective_thresh =   3.329854933453724E-009
   GDM:         diagonal hessian shift is      0.000000000000000E+000
   GDM::PreWSS: input subspace size is                 15
   GDM::PreWSS: working subspace size set to           15
   GDM::PrEWSS: # of linearly dependent vectors =           12
   GDM::PrEWSS: Max dev from orthonormality =   1.039331325863868E-009
   GDM::BFGS:   lowest Hinv e-value    0.168077003657137     
   GDM::BFGS:   highest Hinv e-value    5.01722860084716     
   GDM::      : max scaling in EWCs is          2.35128803609170     
   GDM::      : max rotation in step is        4.647986121110285E-008
   GDM::        grad.step =  -6.951967743494156E-015
   ------- Leaving GDM -- hopefully with a step in the right direction! --------
 
   18    -347.4247065869      2.08E-08  Gap = 0.00 eV  Normal BFGS step
 
   ------------------- Entering Geometric Direct Minimization ------------------
   GDM::trust : actual energy change is       -2.273736754432321E-013
   GDM::trust : predicted energy change was   -1.042795161524124E-014
   GDM::trust : updated trust radius is        0.330000000000000     
   GDM:         diagonal hessian shift is      0.000000000000000E+000
   GDM::PreWSS: input subspace size is                 16
   GDM::PreWSS: working subspace size set to           15
   GDM::PrEWSS: # of linearly dependent vectors =           12
   GDM::PrEWSS: Max dev from orthonormality =   6.154451948070516E-012
   GDM::BFGS:   lowest Hinv e-value    0.168165471795624     
   GDM::BFGS:   highest Hinv e-value    4.95829749377897     
   GDM::      : max scaling in EWCs is          2.35128801732631     
   GDM::      : max rotation in step is       -3.344040443683964E-008
   GDM::        grad.step =  -7.431942834401106E-016
   ------- Leaving GDM -- hopefully with a step in the right direction! --------
 
   19    -347.4247065869      6.11E-09 Convergence criterion met
 ---------------------------------------
 One-Electron    Energy =  -840.9220872852
 Total Coulomb   Energy =   358.0261974964
 Alpha Exchange  Energy =    -3.9639082151
 Beta  Exchange  Energy =    -3.6261973522
 DFT   Exchange  Energy =   -30.4491765561
 DFT Correlation Energy =    -1.9703885345
 Nuclear Repu.   Energy =   175.4808538599
 Nuclear Attr.   Energy = -1163.3014326104
 Kinetic         Energy =   322.3793453252
 <S^2> = 2.0407
 SCF time:  CPU 77.18 s  wall 18.84 s
 SCF   energy in the final basis set = -347.4247065869
 Total energy in the final basis set = -347.4247065869
 
 --------------------------------------------------------------
 
                    Orbital Energies (a.u.)
 --------------------------------------------------------------
 
 Alpha MOs
 -- Occupied --
-19.293 -19.293 -19.197 -19.197  -2.087  -1.315  -1.309  -1.288
 -1.205  -0.935  -0.917  -0.868  -0.541  -0.535  -0.516  -0.422
 -0.380  -0.376  -0.370  -0.366  -0.351  -0.342  -0.328
 -- Virtual --
 -0.129  -0.056  -0.041  -0.019  -0.005  -0.004   0.007   0.023
  0.030   0.048   0.106   0.128   0.149   0.152   0.153   0.165
  0.170   0.188   0.189   0.214   0.219   0.220   0.222   0.230
  0.251   0.256   0.286   0.311   0.311   0.330   0.373   0.405
  0.591   0.664   1.038   1.055   1.098   1.109   1.109   1.125
  1.137   1.152   1.157   1.190   1.201   1.211   1.448   1.477
  1.552   1.570   1.610   1.675   1.692   1.697   1.754   1.756
  1.763   1.764   1.791   1.794   1.808   1.862   1.877   1.885
  1.952   1.984   2.179   2.406   2.430   3.006  13.445
 
 Beta MOs
 -- Occupied --
-19.278 -19.278 -19.181 -19.181  -2.091  -1.314  -1.311  -1.292
 -1.179  -0.891  -0.874  -0.824  -0.518  -0.501  -0.457  -0.362
 -0.359  -0.350  -0.347  -0.321  -0.309
 -- Virtual --
 -0.219  -0.177  -0.131  -0.050  -0.040  -0.015  -0.004   0.003
  0.023   0.029   0.031   0.059   0.108   0.130   0.151   0.158
  0.159   0.172   0.173   0.191   0.193   0.221   0.222   0.226
  0.231   0.232   0.251   0.259   0.290   0.313   0.313   0.332
  0.378   0.407   0.591   0.666   1.062   1.084   1.119   1.133
  1.147   1.147   1.158   1.163   1.166   1.212   1.220   1.233
  1.476   1.481   1.568   1.596   1.640   1.697   1.715   1.717
  1.777   1.785   1.787   1.809   1.816   1.829   1.837   1.894
  1.909   1.917   1.963   2.002   2.198   2.437   2.442   3.020
 13.446
 --------------------------------------------------------------
 
          Ground-State Mulliken Net Atomic Charges

     Atom                 Charge (a.u.)    Spin (a.u.)
  --------------------------------------------------------
      1 Zr                    1.521493      -0.232276
      2 O                    -0.507529       0.609760
      3 O                    -0.253159       0.506778
      4 O                    -0.507560       0.608906
      5 O                    -0.253245       0.506832
  --------------------------------------------------------
  Sum of atomic charges =     0.000000
  Sum of spin   charges =     2.000000

 -----------------------------------------------------------------
                    Cartesian Multipole Moments
 -----------------------------------------------------------------
    Charge (ESU x 10^10)
                 0.0000
    Dipole Moment (Debye)
         X      -1.0681      Y       0.0016      Z      -0.0089
       Tot       1.0681
    Quadrupole Moments (Debye-Ang)
        XX     -53.0246     XY       0.0006     YY     -51.6257
        XZ      -0.0046     YZ       0.0143     ZZ     -38.5389
    Octopole Moments (Debye-Ang^2)
       XXX       3.0808    XXY      -0.0003    XYY     -17.2669
       YYY       0.0063    XXZ       0.0090    XYZ       0.0204
       YYZ       0.0023    XZZ       1.8723    YZZ       0.0006
       ZZZ       0.0089
    Hexadecapole Moments (Debye-Ang^3)
      XXXX    -422.9927   XXXY      -0.0052   XXYY    -118.7136
      XYYY      -0.0095   YYYY    -252.9427   XXXZ      -0.0197
      XXYZ       0.0405   XYYZ      -0.0054   YYYZ       0.1140
      XXZZ     -82.2402   XYZZ      -0.0024   YYZZ     -49.5941
      XZZZ      -0.0175   YZZZ       0.0933   ZZZZ     -63.7121
 -----------------------------------------------------------------
 Calculating analytic gradient of the SCF energy
 Gradient of SCF Energy
            1           2           3           4           5
    1   0.0002230  -0.0000475  -0.0000776  -0.0000270  -0.0000710
    2   0.0000245  -0.0000669  -0.0000012   0.0000408   0.0000028
    3   0.0000023   0.0000028   0.0000085   0.0000049  -0.0000186
 Max gradient component =       2.230E-04
 RMS gradient           =       6.878E-05
 Gradient time:  CPU 10.63 s  wall 3.97 s
 Geometry Optimization Parameters
   NAtoms,    NIC,     NZ,  NCons,   NDum,   NFix, NCnnct, MaxDiis
        5      27       0       0       0       0       0       0

 Cartesian Hessian Update
 Hessian Updated using BFGS Update


** GEOMETRY OPTIMIZATION IN DELOCALIZED INTERNAL COORDINATES **
   Searching for a Minimum

   Optimization Cycle:  10

                       Coordinates (Angstroms)
     ATOM                X               Y               Z
      1  Zr        0.2773516678   -0.0000193668   -0.0007664182
      2  O         1.3007394919    1.5539766679   -0.0012821236
      3  O        -1.8126724928    0.0006747474    0.6659160327
      4  O         1.3004040319   -1.5540075004    0.0020783820
      5  O        -1.8133726988   -0.0006345482   -0.6658458728
   Point Group: c1    Number of degrees of freedom:     9


   Energy is   -347.424706587

 Hessian Updated using BFGS Update

  9 Hessian modes will be used to form the next step
  Hessian Eigenvalues:
     0.036480    0.055967    0.056096    0.110327    0.191111    0.205687
     0.348605    0.386996    0.432134

 Minimum Search - Taking Simple RFO Step
 Searching for Lamda that Minimizes Along All modes
 Value Taken    Lamda =   0.00000000
 Step Taken.  Stepsize is  0.001082

                             Maximum     Tolerance    Cnvgd?
         Gradient           0.000130      0.000300     YES
         Displacement       0.000971      0.001200     YES
         Energy change     -0.000001      0.000001      NO


                       Distance Matrix (Angstroms)
             Zr(  1)   O (  2)   O (  3)   O (  4)
   O (  2)  1.860706
   O (  3)  2.193779  3.542772
   O (  4)  1.860517  3.107986  3.542452
   O (  5)  2.193960  3.543467  1.331763  3.543261
 
 Final energy is   -347.424706586911     


 ******************************
 **  OPTIMIZATION CONVERGED  **
 ******************************

                       Coordinates (Angstroms)
     ATOM                X               Y               Z
      1  Zr        0.2773516678   -0.0000193668   -0.0007664182
      2  O         1.3007394919    1.5539766679   -0.0012821236
      3  O        -1.8126724928    0.0006747474    0.6659160327
      4  O         1.3004040319   -1.5540075004    0.0020783820
      5  O        -1.8133726988   -0.0006345482   -0.6658458728

Z-matrix Print:
$molecule
0 3
Zr
O  1 1.860517
O  1 1.860706 2 113.274494
O  1 2.193779 2 121.578652 3 159.023089 0
O  4 1.331763 1 72.338310 2 101.358555 0
$end

 
 --------------------------------------------------------------
 
                    Orbital Energies (a.u.)
 --------------------------------------------------------------
 
 Alpha MOs
 -- Occupied --
-19.293 -19.293 -19.197 -19.197  -2.087  -1.315  -1.309  -1.288
 -1.205  -0.935  -0.917  -0.868  -0.541  -0.535  -0.516  -0.422
 -0.380  -0.376  -0.370  -0.366  -0.351  -0.342  -0.328
 -- Virtual --
 -0.129  -0.056  -0.041  -0.019  -0.005  -0.004   0.007   0.023
  0.030   0.048   0.106   0.128   0.149   0.152   0.153   0.165
  0.170   0.188   0.189   0.214   0.219   0.220   0.222   0.230
  0.251   0.256   0.286   0.311   0.311   0.330   0.373   0.405
  0.591   0.664   1.038   1.055   1.098   1.109   1.109   1.125
  1.137   1.152   1.157   1.190   1.201   1.211   1.448   1.477
  1.552   1.570   1.610   1.675   1.692   1.697   1.754   1.756
  1.763   1.764   1.791   1.794   1.808   1.862   1.877   1.885
  1.952   1.984   2.179   2.406   2.430   3.006  13.445
 
 Beta MOs
 -- Occupied --
-19.278 -19.278 -19.181 -19.181  -2.091  -1.314  -1.311  -1.292
 -1.179  -0.891  -0.874  -0.824  -0.518  -0.501  -0.457  -0.362
 -0.359  -0.350  -0.347  -0.321  -0.309
 -- Virtual --
 -0.219  -0.177  -0.131  -0.050  -0.040  -0.015  -0.004   0.003
  0.023   0.029   0.031   0.059   0.108   0.130   0.151   0.158
  0.159   0.172   0.173   0.191   0.193   0.221   0.222   0.226
  0.231   0.232   0.251   0.259   0.290   0.313   0.313   0.332
  0.378   0.407   0.591   0.666   1.062   1.084   1.119   1.133
  1.147   1.147   1.158   1.163   1.166   1.212   1.220   1.233
  1.476   1.481   1.568   1.596   1.640   1.697   1.715   1.717
  1.777   1.785   1.787   1.809   1.816   1.829   1.837   1.894
  1.909   1.917   1.963   2.002   2.198   2.437   2.442   3.020
 13.446
 --------------------------------------------------------------
 
          Ground-State Mulliken Net Atomic Charges

     Atom                 Charge (a.u.)    Spin (a.u.)
  --------------------------------------------------------
      1 Zr                    1.521493      -0.232276
      2 O                    -0.507529       0.609760
      3 O                    -0.253159       0.506778
      4 O                    -0.507560       0.608906
      5 O                    -0.253245       0.506832
  --------------------------------------------------------
  Sum of atomic charges =     0.000000
  Sum of spin   charges =     2.000000

 -----------------------------------------------------------------
                    Cartesian Multipole Moments
 -----------------------------------------------------------------
    Charge (ESU x 10^10)
                 0.0000
    Dipole Moment (Debye)
         X      -1.0681      Y       0.0016      Z      -0.0089
       Tot       1.0681
    Quadrupole Moments (Debye-Ang)
        XX     -53.0246     XY       0.0006     YY     -51.6257
        XZ      -0.0046     YZ       0.0143     ZZ     -38.5389
    Octopole Moments (Debye-Ang^2)
       XXX       3.0808    XXY      -0.0003    XYY     -17.2669
       YYY       0.0063    XXZ       0.0090    XYZ       0.0204
       YYZ       0.0023    XZZ       1.8723    YZZ       0.0006
       ZZZ       0.0089
    Hexadecapole Moments (Debye-Ang^3)
      XXXX    -422.9927   XXXY      -0.0052   XXYY    -118.7136
      XYYY      -0.0095   YYYY    -252.9427   XXXZ      -0.0197
      XXYZ       0.0405   XYYZ      -0.0054   YYYZ       0.1140
      XXZZ     -82.2402   XYZZ      -0.0024   YYZZ     -49.5941
      XZZZ      -0.0175   YZZZ       0.0933   ZZZZ     -63.7121
 -----------------------------------------------------------------
Archival summary:
1\1\hpc3718\OPT\ProcedureUnspecified\BasisUnspecified\r14(\liqiuy\FriJan1721:29:442020FriJan1721:29:442020\0\\#,OPT,ProcedureUnspecified,BasisUnspecified,\\28,3\Zr\O,1,1.86052\O,1,1.86071,2,113.274\O,1,2.19378,2,121.579,3,159.023,0\O,4,1.33176,1,72.3383,2,101.359,0\\\@

 Total job time:  170.03s(wall), 972.94s(cpu) 
 Fri Jan 17 21:29:44 2020

        *************************************************************
        *                                                           *
        *  Thank you very much for using Q-Chem.  Have a nice day.  *
        *                                                           *
        *************************************************************


0 sent ACK to 0 
now end server 0 ... 
cleanup process ... done
