
Running Job 1 of 2 ZrOx.in
qchem ZrOx.in_31291.0 /tmp/5733236.priya/ZrOx.save/ 1
/usr/usc/qchem/4.4/bin/mpi/mpirun_qchem -machinefile /usr/usc/qchem/4.4/bin/mpi/machines -np 1 /usr/usc/qchem/4.4/exe/qcprog.exe ZrOx.in_31291.0 /tmp/5733236.priya/ZrOx.save/

Process 0 of 1 is on hpc3742.hpcc.usc.edu - thread support 0
initial socket setup ...start
initial socket setup ...done 
now start server 0 ... 
Check license passed

                  Welcome to Q-Chem
     A Quantum Leap Into The Future Of Chemistry


 Q-Chem 4.4, Q-Chem, Inc., Pleasanton, CA (2016)

 Y. Shao,  Z. Gan,  E. Epifanovsky,  A. T. B. Gilbert,  M. Wormit,  
 J. Kussmann,  A. W. Lange,  A. Behn,  J. Deng,  X. Feng,  D. Ghosh,  
 M. Goldey,  P. R. Horn,  L. D. Jacobson,  I. Kaliman,  F.Rob,  
 R. Z. Khaliullin,  T. Kus,  A. Landau,  J. Liu,  E. I. Proynov,  Y. M. Rhee,  
 R. M. Richard,  M. A. Rohrdanz,  R. P. Steele,  E. J. Sundstrom,  
 H. L. Woodcock III,  P. M. Zimmerman,  D. Zuev,  B. Albrecht,  E. Alguire,  
 B. Austin,  S. A. Baeppler,  G. J. O. Beran,  Y. A. Bernard,  E. Berquist,  
 K. Brandhorst,  K. B. Bravaya,  S. T. Brown,  D. Casanova,  C.-M. Chang,  
 Y. Chen,  S. H. Chien,  K. D. Closser,  M. P. Coons,  D. L. Crittenden,  
 S. Dasgupta,  M. Diedenhofen,  R. A. DiStasio Jr.,  H. Do,  A. D. Dutoi,  
 R. G. Edgar,  P.-T. Fang,  S. Fatehi,  Q. Feng,  L. Fusti-Molnar,  
 A. Ghysels,  A. Golubeva-Zadorozhnaya,  J. Gomes,  A. Gunina,  
 M. W. D. Hanson-Heine,  P. H. P. Harbach,  A. W. Hauser,  E. G. Hohenstein,  
 Z. C. Holden,  K. Hui,  T.-C. Jagau,  H. Ji,  B. Kaduk,  K. Khistyaev,  
 Jaehoon Kim,  Jihan Kim,  R. A. King,  P. Klunzinger,  D. Kosenkov,  
 T. Kowalczyk,  C. M. Krauter,  A. Kunitsa,  K. U. Lao,  A. Laurent,  
 K. V. Lawler,  D. Lefrancois,  S. Lehtola,  S. V. Levchenko,  C. Y. Lin,  
 Y.-S. Lin,  F. Liu,  E. Livshits,  R. C. Lochan,  A. Luenser,  P. Manohar,  
 S. F. Manzer,  S.-P. Mao,  Y. Mao,  N. Mardirossian,  A. V. Marenich,  
 L. A. Martinez-Martinez,  S. A. Maurer,  N. J. Mayhall,  J.-M. Mewes,  
 A. F. Morrison,  K. Nanda,  C. M. Oana,  R. Olivares-Amaya,  D. P. O'Neill,  
 J. A. Parkhill,  T. M. Perrine,  R. Peverati,  P. A. Pieniazek,  F. Plasser,  
 A. Prociuk,  D. R. Rehn,  E. Rosta,  N. J. Russ,  N. Sergueev,  
 S. M. Sharada,  S. Sharma,  D. W. Small,  A. Sodt,  T. Stauch,  T. Stein,  
 D. Stuck,  Y.-C. Su,  A. J. W. Thom,  T. Tsuchimochi,  L. Vogt,  O. Vydrov,  
 T. Wang,  M. A. Watson,  J. Wenzel,  A. White,  C. F. Williams,  
 V. Vanovschi,  S. Yeganeh,  S. R. Yost,  Z.-Q. You,  I. Y. Zhang,  X. Zhang,  
 Y. Zhao,  B. R. Brooks,  G. K. L. Chan,  D. M. Chipman,  C. J. Cramer,  
 W. A. Goddard III,  M. S. Gordon,  W. J. Hehre,  A. Klamt,  
 H. F. Schaefer III,  M. W. Schmidt,  C. D. Sherrill,  D. G. Truhlar,  
 A. Warshel,  X. Xu,  A. Aspuru-Guzik,  R. Baer,  A. T. Bell,  N. A. Besley,  
 J.-D. Chai,  A. Dreuw,  B. D. Dunietz,  T. R. Furlani,  S. R. Gwaltney,  
 C.-P. Hsu,  Y. Jung,  J. Kong,  D. S. Lambrecht,  W. Liang,  C. Ochsenfeld,  
 V. A. Rassolov,  L. V. Slipchenko,  J. E. Subotnik,  T. Van Voorhis,  
 J. M. Herbert,  A. I. Krylov,  P. M. W. Gill,  M. Head-Gordon

 Contributors to earlier versions of Q-Chem not listed above: 
 R. D. Adamson,  J. Baker,  E. F. C. Byrd,  A. K. Chakraborty,  C.-L. Cheng,  
 H. Dachsel,  R. J. Doerksen,  G. Hawkins,  A. Heyden,  S. Hirata,  
 G. Kedziora,  F. J. Keil,  C. Kelley,  P. P. Korambath,  W. Kurlancheek,  
 A. M. Lee,  M. S. Lee,  D. Liotard,  I. Lotan,  P. E. Maslen,  N. Nair,  
 D. Neuhauser,  R. Olson,  B. Peters,  J. Ritchie,  N. E. Schultz,  
 N. Shenvi,  A. C. Simmonett,  K. S. Thanthiriwatte,  Q. Wu,  W. Zhang

 Please cite Q-Chem as follows:
 Y. Shao et al., Mol. Phys. 113, 184-215 (2015)
 DOI: 10.1080/00268976.2014.952696

 Q-Chem 4.4.1 for Intel X86 Linux

 Parts of Q-Chem use Armadillo 5.200.1 (Boston Tea Smuggler).
 http://arma.sourceforge.net/

 Q-Chem begins on Fri Jan 17 21:25:52 2020  

Host: 
0

     Scratch files written to /tmp/5733236.priya/ZrOx.save//
 Jul2716 11668_ 21447  21445 5558   
 Parallel job on  1  processors
Processing $rem in /usr/usc/qchem/4.4/config/preferences.
 MEM_TOTAL  2000 

Checking the input file for inconsistencies... 	...done.

--------------------------------------------------------------
User input:
--------------------------------------------------------------
$comment
--------------------------------------------------------
A SINGLE POINT DFT CALCULATION WITH BASIS SET PROJECTION
--------------------------------------------------------
$end

$molecule
0 1
Zr 0.00127 0.00060 0.00000
S 0.85170 1.97541 0.00000
S 1.28097 -1.72727 0.00000
S -2.13392 -0.24880 0.00000
$end

$rem
JOBTYPE   SP
METHOD   B3LYP
BASIS   GEN
ECP   GEN
MAX_SCF_CYCLES   200
SCF_CONVERGENCE 8
SCF_ALGORITHM  DIIS_GDM
SCF_PRINT 1
PDB_PRINT 2
THRESH 14
VARTHRESH 14
INCDFT FALSE
SYMMETRY False
Sym_ignore True
SCF_ALGORITHM GDM
XC_GRID 000128000302
DFT_D           EMPIRICAL_GRIMME3
DFT_D3_S6       1000
DFT_D3_RS6     1261
DFT_D3_S8      1703
DFT_D3_3BODY    FALSE
$end

$basis
O
6-31+G**
****
S
6-31+G**
****
Zr
LanL2DZ
****
$end

$ecp
Zr
LanL2DZ
****
$end

--------------------------------------------------------------
 ----------------------------------------------------------------
             Standard Nuclear Orientation (Angstroms)
    I     Atom           X                Y                Z
 ----------------------------------------------------------------
    1      Zr      0.0012700000     0.0006000000     0.0000000000
    2      S       0.8517000000     1.9754100000     0.0000000000
    3      S       1.2809700000    -1.7272700000     0.0000000000
    4      S      -2.1339200000    -0.2488000000     0.0000000000
 ----------------------------------------------------------------
 Nuclear Repulsion Energy =   250.9021319917 hartrees
 There are       30 alpha and       30 beta electrons

 Q-Chem warning in module /home/scratch/svnadmin/11668_zgan/qchem/forms1/BasisType.C, line 1419:

 Setting pure/cartesian flag to 2111 for general basis


 Requested basis set is non-standard
 There are 26 shells and 88 basis functions

 Total QAlloc Memory Limit   2000 MB
 Mega-Array Size        61 MB
 MEM_STATIC part        62 MB

                       Distance Matrix (Angstroms)
             Zr(  1)   S (  2)   S (  3)
   S (  2)  2.150141
   S (  3)  2.150155  3.727481
   S (  4)  2.149706  3.723041  3.721202
 
 A cutoff of  1.0D-14 yielded    339 shell pairs
 There are      3972 function pairs (      4452 Cartesian)
 
 -------------------------------------------------------
 OpenMP Integral Computing Module                       
 Release: version 1.0, May 2013, Q-Chem Inc. Pittsburgh 
 -------------------------------------------------------
 Integral Job Info:
 Integral job number is                      11
 Integral operator is                         1
 short-range coefficients                     0
 long-range coefficients              100000000
 Omega coefficients                           0
 if combine SR and LR in K                    0
 Integral screening is                        0
 Integral computing path is                   2
 max size of driver memory is            800000
 size of driver memory is                593474
 size of scratch memory is             15166112
 max col of scratch BK array               1296
 max len of scratch array in speh3          155
 max len of scratch index in speh4           18
 max int batch size is                      520
 min int batch size is                       52
 fixed nKL is                                52
 max L of basis functions is                  2
 order of int derivative is                   0
 number of shells is                         26
 number of basis is                          93
 number of cartesian basis is                93
 number of contracted shell pairs           339
 number of primitive shell pairs           2104
 maxK2 (contraction) of shell pair           36
 max number of K2 of shell pair               1
 max number of CS2 of shell pair             27
 max number of PS2 of shell pair            162
 mem total for path MDJ                   21208
 -------------------------------------------------------
 Requested basis set is non-standard
 Compound shells will be simplified
 There are 38 shells and 88 basis functions
 A cutoff of  1.0D-14 yielded    714 shell pairs
 There are      3936 function pairs (      4416 Cartesian)
 Smallest overlap matrix eigenvalue = 1.04E-03

 Scale SEOQF with 1.000000e-01/1.000000e-01/1.000000e-01

 Standard Electronic Orientation quadrupole field applied
 Nucleus-field energy     =     0.0000000119 hartrees
 Guess MOs from core Hamiltonian diagonalization
 A restricted hybrid HF-DFT SCF calculation will be
 performed using Geometric Direct Minimization
 Exchange:     0.2000 Hartree-Fock + 0.0800 Slater + 0.7200 B88
 Correlation:  0.1900 VWN1RPA + 0.8100 LYP
 Using Euler-Maclaurin-Lebedev (128,302) quadrature formula
 Dispersion:   Grimme D3
 SCF converges when RMS gradient is below 1.0E-08
 Maximum number of minimization steps = 200
 using 12 threads for integral computing 
 -------------------------------------------------------
 OpenMP BLAS3 based DFT computing Module                
 Release: version 1.0, May 2013, Q-Chem Inc. Pittsburgh 
 -------------------------------------------------------
 
   ------------------- Entering Geometric Direct Minimization ------------------
   GDM:         diagonal hessian shift is      0.000000000000000E+000
   GDM::PreWSS: input subspace size is                  1
   GDM::PreWSS: working subspace size set to            1
   GDM::PrEWSS: # of linearly dependent vectors =            0
   GDM::PrEWSS: Max dev from orthonormality =   2.220446049250313E-016
   GDM::BFGS:   lowest Hinv e-value     1.00000000000000     
   GDM::BFGS:   highest Hinv e-value    1.00000000000000     
   GDM::      : max scaling in EWCs is          1.41421356237309     
   GDM::      : max rotation in step is       -0.125265511357267     
   GDM::        grad.step =   -1.60915147051935     
   ------- Leaving GDM -- hopefully with a step in the right direction! --------
 
 ---------------------------------------
  Cycle       Energy        RMS Gradient
 ---------------------------------------
    1   -1227.3537023911      1.31E+00  Gap = 0.00 eV  Descent step
 
   ------------------- Entering Geometric Direct Minimization ------------------
   GDM::trust : actual energy change is        -3.10651246324051     
   GDM::trust : predicted energy change was   -0.163350000000000     
   GDM::trust : updated trust radius is        0.330000000000000     
   GDM:         diagonal hessian shift is      0.000000000000000E+000
   GDM::PreWSS: input subspace size is                  2
   GDM::PreWSS: working subspace size set to            2
   GDM::PrEWSS: # of linearly dependent vectors =            0
   GDM::PrEWSS: Max dev from orthonormality =   6.841749389252527E-015
   GDM::BFGS:   lowest Hinv e-value    0.401983751444121     
   GDM::BFGS:   highest Hinv e-value    2.44532143538692     
   GDM::      : max scaling in EWCs is          1.41421356237309     
   GDM::      : max rotation in step is       -0.104382694587816     
   GDM::        grad.step =   -1.51477902871315     
   ------- Leaving GDM -- hopefully with a step in the right direction! --------
 
    2   -1230.4602148544      1.03E+00  Gap = 0.00 eV  Descent step
 
   ------------------- Entering Geometric Direct Minimization ------------------
   GDM::trust : actual energy change is        -2.91287409356437     
   GDM::trust : predicted energy change was   -0.138148207394290     
   GDM::trust : updated trust radius is        0.330000000000000     
   GDM:         diagonal hessian shift is      0.000000000000000E+000
   GDM::PreWSS: input subspace size is                  3
   GDM::PreWSS: working subspace size set to            3
   GDM::PrEWSS: # of linearly dependent vectors =            0
   GDM::PrEWSS: Max dev from orthonormality =   1.946394434515497E-013
   GDM::BFGS:   lowest Hinv e-value    0.282535269137033     
   GDM::BFGS:   highest Hinv e-value    1.69070163751101     
   GDM::      : max scaling in EWCs is          2.82842712474619     
   GDM::      : max rotation in step is        0.321986982462159     
   GDM::        grad.step =   -2.03656781828992     
   ------- Leaving GDM -- hopefully with a step in the right direction! --------
 
    3   -1233.3730889479      2.13E+00  Gap = 0.00 eV  Descent step
 
   ------------------- Entering Geometric Direct Minimization ------------------
   GDM::trust : actual energy change is        -3.65001555454205     
   GDM::trust : predicted energy change was   -0.159293806847959     
   GDM::trust : updated trust radius is        0.330000000000000     
   GDM:         diagonal hessian shift is      0.000000000000000E+000
   GDM::PreWSS: input subspace size is                  4
   GDM::PreWSS: working subspace size set to            4
   GDM::PrEWSS: # of linearly dependent vectors =            0
   GDM::PrEWSS: Max dev from orthonormality =   5.637018629656154E-013
   GDM::BFGS:   lowest Hinv e-value    0.349719640161055     
   GDM::BFGS:   highest Hinv e-value    1.82004658370929     
   GDM::      : max scaling in EWCs is          2.82842712474619     
   GDM::      : max rotation in step is       -0.143882329153632     
   GDM::        grad.step =  -0.931338668677121     
   ------- Leaving GDM -- hopefully with a step in the right direction! --------
 
    4   -1237.0231045025      5.44E-01  Gap = 0.00 eV  Descent step
 
   ------------------- Entering Geometric Direct Minimization ------------------
   GDM::trust : actual energy change is        -1.71624087127248     
   GDM::trust : predicted energy change was   -0.160652074818013     
   GDM::trust : updated trust radius is        0.330000000000000     
   GDM:         diagonal hessian shift is      0.000000000000000E+000
   GDM::PreWSS: input subspace size is                  5
   GDM::PreWSS: working subspace size set to            5
   GDM::PrEWSS: # of linearly dependent vectors =            0
   GDM::PrEWSS: Max dev from orthonormality =   1.443969943615286E-012
   GDM::BFGS:   lowest Hinv e-value    0.352461779014043     
   GDM::BFGS:   highest Hinv e-value    2.35165387716224     
   GDM::      : max scaling in EWCs is          2.82842712474619     
   GDM::      : max rotation in step is       -0.423838552469294     
   GDM::        grad.step =  -0.725075645231640     
   ------- Leaving GDM -- hopefully with a step in the right direction! --------
 
    5   -1238.7393453737      9.98E-01  Gap = 0.00 eV  Descent step
 
   ------------------- Entering Geometric Direct Minimization ------------------
   GDM::trust : actual energy change is        -1.22833374713196     
   GDM::trust : predicted energy change was   -0.158499295596214     
   GDM::trust : updated trust radius is        0.330000000000000     
   GDM:         diagonal hessian shift is      0.000000000000000E+000
   GDM::PreWSS: input subspace size is                  6
   GDM::PreWSS: working subspace size set to            6
   GDM::PrEWSS: # of linearly dependent vectors =            0
   GDM::PrEWSS: Max dev from orthonormality =   1.196445720275108E-012
   GDM::BFGS:   lowest Hinv e-value    0.327981062299120     
   GDM::BFGS:   highest Hinv e-value    2.57052902775318     
   GDM::      : max scaling in EWCs is          2.82842712474619     
   GDM::      : max rotation in step is        0.144016045632657     
   GDM::        grad.step =  -0.404762564958485     
   ------- Leaving GDM -- hopefully with a step in the right direction! --------
 
    6   -1239.9676791209      2.56E-01  Gap = 0.00 eV  Descent step
 
   ------------------- Entering Geometric Direct Minimization ------------------
   GDM::trust : actual energy change is       -0.627133479555368     
   GDM::trust : predicted energy change was   -0.180840812524779     
   GDM::trust : updated trust radius is        0.330000000000000     
   GDM:         diagonal hessian shift is      0.000000000000000E+000
   GDM::PreWSS: input subspace size is                  7
   GDM::PreWSS: working subspace size set to            7
   GDM::PrEWSS: # of linearly dependent vectors =            0
   GDM::PrEWSS: Max dev from orthonormality =   1.267156518602874E-012
   GDM::BFGS:   lowest Hinv e-value    0.424465135122074     
   GDM::BFGS:   highest Hinv e-value    2.74935317561986     
   GDM::      : max scaling in EWCs is          2.82842712474619     
   GDM::      : max rotation in step is        4.759577253073460E-002
   GDM::        grad.step =  -0.226675119336986     
   ------- Leaving GDM -- hopefully with a step in the right direction! --------
 
    7   -1240.5948126004      1.09E-01  Gap = 0.00 eV  Descent step
 
   ------------------- Entering Geometric Direct Minimization ------------------
   GDM::trust : actual energy change is       -0.306599775039331     
   GDM::trust : predicted energy change was   -0.172428855060730     
   GDM::trust : updated trust radius is        0.330000000000000     
   GDM:         diagonal hessian shift is      0.000000000000000E+000
   GDM::PreWSS: input subspace size is                  8
   GDM::PreWSS: working subspace size set to            8
   GDM::PrEWSS: # of linearly dependent vectors =            0
   GDM::PrEWSS: Max dev from orthonormality =   2.653894465298734E-012
   GDM::BFGS:   lowest Hinv e-value    0.417503415323473     
   GDM::BFGS:   highest Hinv e-value    2.97835480057321     
   GDM::trust : dogleg step length is          0.330000000000000     
   GDM::      : max scaling in EWCs is          2.82842712474619     
   GDM::      : max rotation in step is        9.296803154109291E-002
   GDM::        grad.step =  -9.924014278169713E-002
   ------- Leaving GDM -- hopefully with a step in the right direction! --------
 
    8   -1240.9014123755      6.01E-02  Gap = 0.00 eV  Dog-leg BFGS step
 
   ------------------- Entering Geometric Direct Minimization ------------------
   GDM::trust : actual energy change is       -6.104324344892120E-002
   GDM::trust : predicted energy change was   -0.142384062346984     
   GDM::trust : updated trust radius is        0.330000000000000     
   GDM:         diagonal hessian shift is      0.000000000000000E+000
   GDM::PreWSS: input subspace size is                  9
   GDM::PreWSS: working subspace size set to            9
   GDM::PrEWSS: # of linearly dependent vectors =            0
   GDM::PrEWSS: Max dev from orthonormality =   1.192865251020692E-012
   GDM::BFGS:   lowest Hinv e-value    0.333239685246862     
   GDM::BFGS:   highest Hinv e-value    2.72128195237059     
   GDM::      : max scaling in EWCs is          2.82842712474619     
   GDM::      : max rotation in step is       -0.139870295472943     
   GDM::        grad.step =  -3.927250195766609E-002
   ------- Leaving GDM -- hopefully with a step in the right direction! --------
 
    9   -1240.9624556189      1.39E-01  Gap = 0.00 eV  Normal BFGS step
 
   ------------------- Entering Geometric Direct Minimization ------------------
   GDM::trust : actual energy change is        5.960489401104496E-003
   GDM::trust : predicted energy change was   -5.890875293649912E-002
   GDM::trust : updated trust radius is        0.108900000000000     
   GDM::search:  On step            1 .  The current bracket is:
       left   : x =  0.0000E+00, e =     -1240.9624556189, g = -0.1639E+00
       current: x =  0.2396E+00, e =     -1240.9564951295, g =  0.1808E+00
       right  : x =  0.1000E+04, e =      1000.0000000000, g =  0.1000E+04
       next   : x =  0.1040E+00
   GDM::      : max rotation in step is       -6.071957975553365E-002
   ------- Leaving GDM -- hopefully with a step in the right direction! --------
 
   10   -1240.9564951295      2.90E-02  Gap = 0.00 eV  Line search: overstep
 
   ------------------- Entering Geometric Direct Minimization ------------------
   GDM::trust : actual energy change is       -1.788260755552074E-002
   GDM::trust : predicted energy change was   -5.890875293649912E-002
   GDM::trust : updated trust radius is        0.108900000000000     
   GDM:         diagonal hessian shift is      0.000000000000000E+000
   GDM::PreWSS: input subspace size is                 10
   GDM::PreWSS: working subspace size set to           10
   GDM::PrEWSS: # of linearly dependent vectors =            0
   GDM::PrEWSS: Max dev from orthonormality =   7.083736375257388E-012
   GDM::BFGS:   lowest Hinv e-value    0.195419166391192     
   GDM::BFGS:   highest Hinv e-value    2.83768927629847     
   GDM::      : max scaling in EWCs is          2.82842712474619     
   GDM::      : max rotation in step is        0.104709190357605     
   GDM::        grad.step =  -1.737696673161585E-002
   ------- Leaving GDM -- hopefully with a step in the right direction! --------
 
   11   -1240.9803382265      7.13E-02  Gap = 0.00 eV  Descent step
 
   ------------------- Entering Geometric Direct Minimization ------------------
   GDM::trust : actual energy change is        1.698992437218294E-002
   GDM::trust : predicted energy change was   -1.989794065044079E-002
   GDM::trust : updated trust radius is        0.108900000000000     
   GDM::search:  On step            1 .  The current bracket is:
       left   : x =  0.0000E+00, e =     -1240.9803382265, g = -0.9493E-01
       current: x =  0.1830E+00, e =     -1240.9633483021, g =  0.1865E+00
       right  : x =  0.1000E+04, e =      1000.0000000000, g =  0.1000E+04
       next   : x =  0.4628E-01
   GDM::      : max rotation in step is        2.647210816717432E-002
   ------- Leaving GDM -- hopefully with a step in the right direction! --------
 
   12   -1240.9633483021      3.31E-02  Gap = 0.00 eV  Line search: overstep
 
   ------------------- Entering Geometric Direct Minimization ------------------
   GDM::trust : actual energy change is       -5.482974867618395E-003
   GDM::trust : predicted energy change was   -1.989794065044079E-002
   GDM::trust : updated trust radius is        0.108900000000000     
   GDM:         diagonal hessian shift is      0.000000000000000E+000
   GDM::PreWSS: input subspace size is                 11
   GDM::PreWSS: working subspace size set to           11
   GDM::PrEWSS: # of linearly dependent vectors =            0
   GDM::PrEWSS: Max dev from orthonormality =   6.776704197797301E-012
   GDM::BFGS:   lowest Hinv e-value    0.155611219971519     
   GDM::BFGS:   highest Hinv e-value    2.79641514238720     
   GDM::      : max scaling in EWCs is          2.82842712474619     
   GDM::      : max rotation in step is       -1.353229334085232E-002
   GDM::        grad.step =  -2.322097375926797E-003
   ------- Leaving GDM -- hopefully with a step in the right direction! --------
 
   13   -1240.9858212013      1.95E-02  Gap = 0.00 eV  Normal BFGS step
 
   ------------------- Entering Geometric Direct Minimization ------------------
   GDM::trust : actual energy change is       -1.335084944912523E-003
   GDM::trust : predicted energy change was   -3.483146063890197E-003
   GDM::trust : updated trust radius is        0.330000000000000     
   GDM:         diagonal hessian shift is      0.000000000000000E+000
   GDM::PreWSS: input subspace size is                 12
   GDM::PreWSS: working subspace size set to           12
   GDM::PrEWSS: # of linearly dependent vectors =            0
   GDM::PrEWSS: Max dev from orthonormality =   1.994568399332763E-011
   GDM::BFGS:   lowest Hinv e-value    0.152408133083147     
   GDM::BFGS:   highest Hinv e-value    2.47863817835737     
   GDM::      : max scaling in EWCs is          2.82842712474619     
   GDM::      : max rotation in step is       -2.354945302800404E-002
   GDM::        grad.step =  -8.959762090303156E-004
   ------- Leaving GDM -- hopefully with a step in the right direction! --------
 
   14   -1240.9871562863      1.38E-02  Gap = 0.00 eV  Normal BFGS step
 
   ------------------- Entering Geometric Direct Minimization ------------------
   GDM::trust : actual energy change is        1.334496300842147E-004
   GDM::trust : predicted energy change was   -1.343964313545473E-003
   GDM::trust : updated trust radius is        0.108900000000000     
   GDM::search:  On step            1 .  The current bracket is:
       left   : x =  0.0000E+00, e =     -1240.9871562863, g = -0.1999E-01
       current: x =  0.4483E-01, e =     -1240.9870228367, g =  0.2307E-01
       right  : x =  0.1000E+04, e =      1000.0000000000, g =  0.1000E+04
       next   : x =  0.1951E-01
   GDM::      : max rotation in step is       -1.024830971161443E-002
   ------- Leaving GDM -- hopefully with a step in the right direction! --------
 
   15   -1240.9870228367      7.01E-03  Gap = 0.00 eV  Line search: overstep
 
   ------------------- Entering Geometric Direct Minimization ------------------
   GDM::trust : actual energy change is       -4.162843720223464E-004
   GDM::trust : predicted energy change was   -1.343964313545473E-003
   GDM::trust : updated trust radius is        0.108900000000000     
   GDM:         diagonal hessian shift is      0.000000000000000E+000
   GDM::PreWSS: input subspace size is                 13
   GDM::PreWSS: working subspace size set to           13
   GDM::PrEWSS: # of linearly dependent vectors =            0
   GDM::PrEWSS: Max dev from orthonormality =   5.668586433582590E-011
   GDM::BFGS:   lowest Hinv e-value    0.150645384521454     
   GDM::BFGS:   highest Hinv e-value    3.14561179635925     
   GDM::      : max scaling in EWCs is          2.82842712474619     
   GDM::      : max rotation in step is       -2.497826875921404E-002
   GDM::        grad.step =  -6.245926807431623E-004
   ------- Leaving GDM -- hopefully with a step in the right direction! --------
 
   16   -1240.9875725707      8.76E-03  Gap = 0.00 eV  Normal BFGS step
 
   ------------------- Entering Geometric Direct Minimization ------------------
   GDM::trust : actual energy change is        8.970892113211448E-004
   GDM::trust : predicted energy change was   -9.368890211147435E-004
   GDM::trust : updated trust radius is        0.108900000000000     
   GDM::search:  On step            1 .  The current bracket is:
       left   : x =  0.0000E+00, e =     -1240.9875725707, g = -0.1241E-01
       current: x =  0.5032E-01, e =     -1240.9866754814, g =  0.3007E-01
       right  : x =  0.1000E+04, e =      1000.0000000000, g =  0.1000E+04
       next   : x =  0.1033E-01
   GDM::      : max rotation in step is       -5.126315797671780E-003
   ------- Leaving GDM -- hopefully with a step in the right direction! --------
 
   17   -1240.9866754814      4.02E-03  Gap = 0.00 eV  Line search: overstep
 
   ------------------- Entering Geometric Direct Minimization ------------------
   GDM::trust : actual energy change is       -1.654276331919391E-004
   GDM::trust : predicted energy change was   -9.368890211147435E-004
   GDM::trust : updated trust radius is        0.108900000000000     
   GDM:         diagonal hessian shift is      0.000000000000000E+000
   GDM::PreWSS: input subspace size is                 14
   GDM::PreWSS: working subspace size set to           14
   GDM::PrEWSS: # of linearly dependent vectors =            0
   GDM::PrEWSS: Max dev from orthonormality =   1.048281079996105E-010
   GDM::BFGS:   lowest Hinv e-value    0.150638351275069     
   GDM::BFGS:   highest Hinv e-value    2.26077547196258     
   GDM::      : max scaling in EWCs is          2.82842712474619     
   GDM::      : max rotation in step is       -2.783413943172290E-002
   GDM::        grad.step =  -2.318233411727960E-004
   ------- Leaving GDM -- hopefully with a step in the right direction! --------
 
   18   -1240.9877379983      5.77E-03  Gap = 0.00 eV  Normal BFGS step
 
   ------------------- Entering Geometric Direct Minimization ------------------
   GDM::trust : actual energy change is       -3.011885760315636E-004
   GDM::trust : predicted energy change was   -3.477350117591939E-004
   GDM::trust : updated trust radius is        0.330000000000000     
   GDM:         diagonal hessian shift is      0.000000000000000E+000
   GDM::PreWSS: input subspace size is                 15
   GDM::PreWSS: working subspace size set to           15
   GDM::PrEWSS: # of linearly dependent vectors =            1
   GDM::PrEWSS: Max dev from orthonormality =   4.409844364672288E-011
   GDM::BFGS:   lowest Hinv e-value    0.148085125733993     
   GDM::BFGS:   highest Hinv e-value    6.82598898908475     
   GDM::      : max scaling in EWCs is          2.82842712474619     
   GDM::      : max rotation in step is       -0.113166389891222     
   GDM::        grad.step =  -5.420714212335915E-004
   ------- Leaving GDM -- hopefully with a step in the right direction! --------
 
   19   -1240.9880391869      1.05E-02  Gap = 0.00 eV  Normal BFGS step
 
   ------------------- Entering Geometric Direct Minimization ------------------
   GDM::trust : actual energy change is       -1.395918809976138E-003
   GDM::trust : predicted energy change was   -8.131071318503878E-004
   GDM::trust : updated trust radius is        0.330000000000000     
   GDM:         diagonal hessian shift is      0.000000000000000E+000
   GDM::PreWSS: input subspace size is                 16
   GDM::PreWSS: working subspace size set to           16
   GDM::PrEWSS: # of linearly dependent vectors =            0
   GDM::PrEWSS: Max dev from orthonormality =   5.976486666670056E-010
   GDM::BFGS:   lowest Hinv e-value    -1.07182893068791     
   GDM::BFGS:   highest Hinv e-value    6.31005466221963     
   GDM::BFGS:   rebuilding Hinv to be positive definite
   GDM::      : max scaling in EWCs is          2.82842712474619     
   GDM::      : max rotation in step is       -4.924927231132823E-002
   GDM::        grad.step =  -1.906024552809580E-003
   ------- Leaving GDM -- hopefully with a step in the right direction! --------
 
   20   -1240.9894351057      2.06E-02  Gap = 0.00 eV  Normal BFGS step
 
   ------------------- Entering Geometric Direct Minimization ------------------
   GDM::trust : actual energy change is       -1.971753232737683E-003
   GDM::trust : predicted energy change was   -2.859036829214369E-003
   GDM::trust : updated trust radius is        0.330000000000000     
   GDM:         diagonal hessian shift is      0.000000000000000E+000
   GDM::PreWSS: input subspace size is                 17
   GDM::PreWSS: working subspace size set to           17
   GDM::PrEWSS: # of linearly dependent vectors =            0
   GDM::PrEWSS: Max dev from orthonormality =   4.909186078483341E-010
   GDM::BFGS:   lowest Hinv e-value    0.145078945119025     
   GDM::BFGS:   highest Hinv e-value    6.94200939192474     
   GDM::      : max scaling in EWCs is          2.82842712474619     
   GDM::      : max rotation in step is       -0.410532170278170     
   GDM::        grad.step =  -6.797165349803722E-003
   ------- Leaving GDM -- hopefully with a step in the right direction! --------
 
   21   -1240.9914068589      3.33E-02  Gap = 0.00 eV  Normal BFGS step
 
   ------------------- Entering Geometric Direct Minimization ------------------
   GDM::trust : actual energy change is       -1.856813329777651E-002
   GDM::trust : predicted energy change was   -1.019574802470559E-002
   GDM::trust : updated trust radius is        0.330000000000000     
   GDM:         diagonal hessian shift is      0.000000000000000E+000
   GDM::PreWSS: input subspace size is                 18
   GDM::PreWSS: working subspace size set to           18
   GDM::PrEWSS: # of linearly dependent vectors =            0
   GDM::PrEWSS: Max dev from orthonormality =   1.282276090863732E-010
   GDM::BFGS:   lowest Hinv e-value   -0.151827480573218     
   GDM::BFGS:   highest Hinv e-value    72.7932090569359     
   GDM::BFGS:   rebuilding Hinv to be positive definite
   GDM::trust : dogleg step length is          0.330000000000000     
   GDM::      : max scaling in EWCs is          2.82842712474619     
   GDM::      : max rotation in step is       -0.792150218222926     
   GDM::        grad.step =  -3.814485243010204E-002
   ------- Leaving GDM -- hopefully with a step in the right direction! --------
 
   22   -1241.0099749922      1.32E-01  Gap = 0.00 eV  Dog-leg BFGS step
 
   ------------------- Entering Geometric Direct Minimization ------------------
   GDM::trust : actual energy change is        1.407721512782700E-002
   GDM::trust : predicted energy change was   -0.123090938408701     
   GDM::trust : updated trust radius is        0.108900000000000     
   GDM::search:  On step            1 .  The current bracket is:
       left   : x =  0.0000E+00, e =     -1241.0099749922, g = -0.4230E-01
       current: x =  0.9017E+00, e =     -1240.9958977771, g =  0.1259E+00
       right  : x =  0.1000E+04, e =      1000.0000000000, g =  0.1000E+04
       next   : x =  0.3293E+00
   GDM::      : max rotation in step is       -0.289307323413306     
   ------- Leaving GDM -- hopefully with a step in the right direction! --------
 
   23   -1240.9958977771      5.51E-02  Gap = 0.00 eV  Line search: overstep
 
   ------------------- Entering Geometric Direct Minimization ------------------
   GDM::trust : actual energy change is       -2.671107600781397E-002
   GDM::trust : predicted energy change was   -0.123090938408701     
   GDM::trust : updated trust radius is        0.108900000000000     
   GDM:         diagonal hessian shift is      0.000000000000000E+000
   GDM::PreWSS: input subspace size is                 19
   GDM::PreWSS: working subspace size set to           18
   GDM::PrEWSS: # of linearly dependent vectors =            0
   GDM::PrEWSS: Max dev from orthonormality =   2.428523354636170E-011
   GDM::BFGS:   lowest Hinv e-value    0.113749739914596     
   GDM::BFGS:   highest Hinv e-value    33.9335830299400     
   GDM::      : max scaling in EWCs is          2.82842712474619     
   GDM::      : max rotation in step is       -0.208242324362781     
   GDM::        grad.step =  -2.338737897626249E-002
   ------- Leaving GDM -- hopefully with a step in the right direction! --------
 
   24   -1241.0366860682      1.45E-01  Gap = 0.00 eV  Descent step
 
   ------------------- Entering Geometric Direct Minimization ------------------
   GDM::trust : actual energy change is       -3.255781031270999E-002
   GDM::trust : predicted energy change was   -2.504182553435503E-002
   GDM::trust : updated trust radius is        0.330000000000000     
   GDM:         diagonal hessian shift is      0.000000000000000E+000
   GDM::PreWSS: input subspace size is                 19
   GDM::PreWSS: working subspace size set to           18
   GDM::PrEWSS: # of linearly dependent vectors =            0
   GDM::PrEWSS: Max dev from orthonormality =   1.028023152715996E-011
   GDM::BFGS:   lowest Hinv e-value    0.211019030590542     
   GDM::BFGS:   highest Hinv e-value    29.8094265834628     
   GDM::trust : dogleg step length is          0.330000000000000     
   GDM::      : max scaling in EWCs is          2.82842712474619     
   GDM::      : max rotation in step is       -0.620866080299900     
   GDM::        grad.step =  -6.543318775525053E-002
   ------- Leaving GDM -- hopefully with a step in the right direction! --------
 
   25   -1241.0692438785      1.30E-01  Gap = 0.00 eV  Dog-leg BFGS step
 
   ------------------- Entering Geometric Direct Minimization ------------------
   GDM::trust : actual energy change is        0.216186658836932     
   GDM::trust : predicted energy change was   -9.052604105615573E-002
   GDM::trust : updated trust radius is        0.108900000000000     
   GDM::search:  On step            1 .  The current bracket is:
       left   : x =  0.0000E+00, e =     -1241.0692438785, g = -0.8024E-01
       current: x =  0.8155E+00, e =     -1240.8530572197, g =  0.2663E+00
       right  : x =  0.1000E+04, e =      1000.0000000000, g =  0.1000E+04
       next   : x =  0.9474E-01
   GDM::      : max rotation in step is       -7.212781218143292E-002
   ------- Leaving GDM -- hopefully with a step in the right direction! --------
 
   26   -1240.8530572197      3.76E-02  Gap = 0.00 eV  Line search: overstep
 
   ------------------- Entering Geometric Direct Minimization ------------------
   GDM::trust : actual energy change is       -1.135841542941307E-002
   GDM::trust : predicted energy change was   -9.052604105615573E-002
   GDM::trust : updated trust radius is        0.108900000000000     
   GDM:         diagonal hessian shift is      0.000000000000000E+000
   GDM::PreWSS: input subspace size is                 19
   GDM::PreWSS: working subspace size set to           18
   GDM::PrEWSS: # of linearly dependent vectors =            0
   GDM::PrEWSS: Max dev from orthonormality =   6.724606982366765E-012
   GDM::BFGS:   lowest Hinv e-value    0.185068985672570     
   GDM::BFGS:   highest Hinv e-value    8.01019957563533     
   GDM::trust : dogleg step length is          0.108900000000000     
   GDM::      : max scaling in EWCs is          2.82842712474619     
   GDM::      : max rotation in step is       -0.199036672828555     
   GDM::        grad.step =  -1.176538252590427E-002
   ------- Leaving GDM -- hopefully with a step in the right direction! --------
 
   27   -1241.0806022940      7.28E-02  Gap = 0.00 eV  Dog-leg BFGS step
 
   ------------------- Entering Geometric Direct Minimization ------------------
   GDM::trust : actual energy change is       -1.231324387822497E-002
   GDM::trust : predicted energy change was   -1.502298165393923E-002
   GDM::trust : updated trust radius is        0.217800000000000     
   GDM:         diagonal hessian shift is      0.000000000000000E+000
   GDM::PreWSS: input subspace size is                 19
   GDM::PreWSS: working subspace size set to           18
   GDM::PrEWSS: # of linearly dependent vectors =            0
   GDM::PrEWSS: Max dev from orthonormality =   5.881260756179785E-012
   GDM::BFGS:   lowest Hinv e-value    0.163149330060884     
   GDM::BFGS:   highest Hinv e-value    6.83139541438925     
   GDM::      : max scaling in EWCs is          2.82842712474619     
   GDM::      : max rotation in step is        5.348640483789203E-002
   GDM::        grad.step =  -4.152585454328143E-003
   ------- Leaving GDM -- hopefully with a step in the right direction! --------
 
   28   -1241.0929155378      7.84E-02  Gap = 0.00 eV  Normal BFGS step
 
   ------------------- Entering Geometric Direct Minimization ------------------
   GDM::trust : actual energy change is        2.544094722452428E-003
   GDM::trust : predicted energy change was   -6.228878181492214E-003
   GDM::trust : updated trust radius is        0.108900000000000     
   GDM::search:  On step            1 .  The current bracket is:
       left   : x =  0.0000E+00, e =     -1241.0929155378, g = -0.4215E-01
       current: x =  0.9852E-01, e =     -1241.0903714431, g =  0.6790E-01
       right  : x =  0.1000E+04, e =      1000.0000000000, g =  0.1000E+04
       next   : x =  0.3055E-01
   GDM::      : max rotation in step is        1.658335629527665E-002
   ------- Leaving GDM -- hopefully with a step in the right direction! --------
 
   29   -1241.0903714431      1.62E-02  Gap = 0.00 eV  Line search: overstep
 
   ------------------- Entering Geometric Direct Minimization ------------------
   GDM::trust : actual energy change is       -1.531839415747527E-003
   GDM::trust : predicted energy change was   -6.228878181492214E-003
   GDM::trust : updated trust radius is        0.108900000000000     
   GDM:         diagonal hessian shift is      0.000000000000000E+000
   GDM::PreWSS: input subspace size is                 19
   GDM::PreWSS: working subspace size set to           18
   GDM::PrEWSS: # of linearly dependent vectors =            0
   GDM::PrEWSS: Max dev from orthonormality =   2.027953326100285E-011
   GDM::BFGS:   lowest Hinv e-value    0.193879612434695     
   GDM::BFGS:   highest Hinv e-value    6.67298604570057     
   GDM::      : max scaling in EWCs is          2.82842712474619     
   GDM::      : max rotation in step is       -9.549730330935052E-002
   GDM::        grad.step =  -3.276977859069560E-003
   ------- Leaving GDM -- hopefully with a step in the right direction! --------
 
   30   -1241.0944473773      5.09E-02  Gap = 0.00 eV  Normal BFGS step
 
   ------------------- Entering Geometric Direct Minimization ------------------
   GDM::trust : actual energy change is       -2.307038375874981E-003
   GDM::trust : predicted energy change was   -4.915466788604340E-003
   GDM::trust : updated trust radius is        0.330000000000000     
   GDM:         diagonal hessian shift is      0.000000000000000E+000
   GDM::PreWSS: input subspace size is                 19
   GDM::PreWSS: working subspace size set to           18
   GDM::PrEWSS: # of linearly dependent vectors =            0
   GDM::PrEWSS: Max dev from orthonormality =   2.154527944941975E-011
   GDM::BFGS:   lowest Hinv e-value    0.195680172523663     
   GDM::BFGS:   highest Hinv e-value    6.15724455024037     
   GDM::      : max scaling in EWCs is          2.82842712474619     
   GDM::      : max rotation in step is        0.101515252442348     
   GDM::        grad.step =  -1.441783665974941E-003
   ------- Leaving GDM -- hopefully with a step in the right direction! --------
 
   31   -1241.0967544156      1.87E-02  Gap = 0.00 eV  Normal BFGS step
 
   ------------------- Entering Geometric Direct Minimization ------------------
   GDM::trust : actual energy change is        3.288706138391717E-003
   GDM::trust : predicted energy change was   -2.162675498962412E-003
   GDM::trust : updated trust radius is        0.108900000000000     
   GDM::search:  On step            1 .  The current bracket is:
       left   : x =  0.0000E+00, e =     -1241.0967544156, g = -0.9924E-02
       current: x =  0.1453E+00, e =     -1241.0934657095, g =  0.3235E-01
       right  : x =  0.1000E+04, e =      1000.0000000000, g =  0.1000E+04
       next   : x =  0.2214E-01
   GDM::      : max rotation in step is        1.547017738877635E-002
   ------- Leaving GDM -- hopefully with a step in the right direction! --------
 
   32   -1241.0934657095      7.31E-03  Gap = 0.00 eV  Line search: overstep
 
   ------------------- Entering Geometric Direct Minimization ------------------
   GDM::trust : actual energy change is       -2.966847828247410E-004
   GDM::trust : predicted energy change was   -2.162675498962412E-003
   GDM::trust : updated trust radius is        0.108900000000000     
   GDM:         diagonal hessian shift is      0.000000000000000E+000
   GDM::PreWSS: input subspace size is                 19
   GDM::PreWSS: working subspace size set to           18
   GDM::PrEWSS: # of linearly dependent vectors =            0
   GDM::PrEWSS: Max dev from orthonormality =   5.136826033980135E-011
   GDM::BFGS:   lowest Hinv e-value    0.180356889886116     
   GDM::BFGS:   highest Hinv e-value    3.75891120209549     
   GDM::      : max scaling in EWCs is          2.82842712474619     
   GDM::      : max rotation in step is        0.154721537640947     
   GDM::        grad.step =  -3.406637992714319E-003
   ------- Leaving GDM -- hopefully with a step in the right direction! --------
 
   33   -1241.0970511004      2.29E-02  Gap = 0.00 eV  Normal BFGS step
 
   ------------------- Entering Geometric Direct Minimization ------------------
   GDM::trust : actual energy change is        2.374677581201468E-003
   GDM::trust : predicted energy change was   -5.109956989071478E-003
   GDM::trust : updated trust radius is        0.108900000000000     
   GDM::search:  On step            1 .  The current bracket is:
       left   : x =  0.0000E+00, e =     -1241.0970511004, g = -0.1632E-01
       current: x =  0.2088E+00, e =     -1241.0946764228, g =  0.2805E-01
       right  : x =  0.1000E+04, e =      1000.0000000000, g =  0.1000E+04
       next   : x =  0.6150E-01
   GDM::      : max rotation in step is        4.558480346557433E-002
   ------- Leaving GDM -- hopefully with a step in the right direction! --------
 
   34   -1241.0946764228      7.65E-03  Gap = 0.00 eV  Line search: overstep
 
   ------------------- Entering Geometric Direct Minimization ------------------
   GDM::trust : actual energy change is       -1.223299922003207E-003
   GDM::trust : predicted energy change was   -5.109956989071478E-003
   GDM::trust : updated trust radius is        0.108900000000000     
   GDM:         diagonal hessian shift is      0.000000000000000E+000
   GDM::PreWSS: input subspace size is                 19
   GDM::PreWSS: working subspace size set to           18
   GDM::PrEWSS: # of linearly dependent vectors =            0
   GDM::PrEWSS: Max dev from orthonormality =   1.110765507350564E-010
   GDM::BFGS:   lowest Hinv e-value    0.158834955383810     
   GDM::BFGS:   highest Hinv e-value    2.99141279256032     
   GDM::      : max scaling in EWCs is          2.82842712474619     
   GDM::      : max rotation in step is        5.833483223374394E-002
   GDM::        grad.step =  -5.953604745545214E-004
   ------- Leaving GDM -- hopefully with a step in the right direction! --------
 
   35   -1241.0982744003      1.23E-02  Gap = 0.00 eV  Normal BFGS step
 
   ------------------- Entering Geometric Direct Minimization ------------------
   GDM::trust : actual energy change is       -6.385041367593658E-004
   GDM::trust : predicted energy change was   -8.930407118317820E-004
   GDM::trust : updated trust radius is        0.330000000000000     
   GDM:         diagonal hessian shift is      0.000000000000000E+000
   GDM::PreWSS: input subspace size is                 19
   GDM::PreWSS: working subspace size set to           18
   GDM::PrEWSS: # of linearly dependent vectors =            0
   GDM::PrEWSS: Max dev from orthonormality =   1.918893169361446E-011
   GDM::BFGS:   lowest Hinv e-value    0.165773580466456     
   GDM::BFGS:   highest Hinv e-value    4.17244768133687     
   GDM::      : max scaling in EWCs is          2.82842712474619     
   GDM::      : max rotation in step is        4.002959776103991E-002
   GDM::        grad.step =  -2.952192696538300E-004
   ------- Leaving GDM -- hopefully with a step in the right direction! --------
 
   36   -1241.0989129045      5.91E-03  Gap = 0.00 eV  Normal BFGS step
 
   ------------------- Entering Geometric Direct Minimization ------------------
   GDM::trust : actual energy change is       -2.190526824961125E-004
   GDM::trust : predicted energy change was   -4.428289044807450E-004
   GDM::trust : updated trust radius is        0.330000000000000     
   GDM:         diagonal hessian shift is      0.000000000000000E+000
   GDM::PreWSS: input subspace size is                 19
   GDM::PreWSS: working subspace size set to           18
   GDM::PrEWSS: # of linearly dependent vectors =            0
   GDM::PrEWSS: Max dev from orthonormality =   4.677878917558331E-011
   GDM::BFGS:   lowest Hinv e-value    0.163736577795171     
   GDM::BFGS:   highest Hinv e-value    5.75281753120126     
   GDM::      : max scaling in EWCs is          2.82842712474619     
   GDM::      : max rotation in step is        2.747706596561767E-002
   GDM::        grad.step =  -1.718730651143333E-004
   ------- Leaving GDM -- hopefully with a step in the right direction! --------
 
   37   -1241.0991319572      7.17E-03  Gap = 0.00 eV  Normal BFGS step
 
   ------------------- Entering Geometric Direct Minimization ------------------
   GDM::trust : actual energy change is       -4.133873790124198E-005
   GDM::trust : predicted energy change was   -2.578095976715000E-004
   GDM::trust : updated trust radius is        0.330000000000000     
   GDM:         diagonal hessian shift is      0.000000000000000E+000
   GDM::PreWSS: input subspace size is                 19
   GDM::PreWSS: working subspace size set to           18
   GDM::PrEWSS: # of linearly dependent vectors =            0
   GDM::PrEWSS: Max dev from orthonormality =   2.354022532458089E-011
   GDM::BFGS:   lowest Hinv e-value    0.153690089559760     
   GDM::BFGS:   highest Hinv e-value    5.02480324299356     
   GDM::      : max scaling in EWCs is          2.82842712474619     
   GDM::      : max rotation in step is       -1.050706241112726E-002
   GDM::        grad.step =  -9.679078631200455E-005
   ------- Leaving GDM -- hopefully with a step in the right direction! --------
 
   38   -1241.0991732959      6.95E-03  Gap = 0.00 eV  Normal BFGS step
 
   ------------------- Entering Geometric Direct Minimization ------------------
   GDM::trust : actual energy change is       -7.615953131789865E-005
   GDM::trust : predicted energy change was   -1.451861794680069E-004
   GDM::trust : updated trust radius is        0.330000000000000     
   GDM:         diagonal hessian shift is      0.000000000000000E+000
   GDM::PreWSS: input subspace size is                 19
   GDM::PreWSS: working subspace size set to           18
   GDM::PrEWSS: # of linearly dependent vectors =            0
   GDM::PrEWSS: Max dev from orthonormality =   8.189453629126042E-011
   GDM::BFGS:   lowest Hinv e-value    0.161292407470871     
   GDM::BFGS:   highest Hinv e-value    4.95053463239978     
   GDM::      : max scaling in EWCs is          2.82842712474619     
   GDM::      : max rotation in step is        3.538208504684714E-003
   GDM::        grad.step =  -1.187237693284799E-005
   ------- Leaving GDM -- hopefully with a step in the right direction! --------
 
   39   -1241.0992494554      1.55E-03  Gap = 0.00 eV  Normal BFGS step
 
   ------------------- Entering Geometric Direct Minimization ------------------
   GDM::trust : actual energy change is       -8.330096989084268E-006
   GDM::trust : predicted energy change was   -1.780856539927199E-005
   GDM::trust : updated trust radius is        0.330000000000000     
   GDM:         diagonal hessian shift is      0.000000000000000E+000
   GDM::PreWSS: input subspace size is                 19
   GDM::PreWSS: working subspace size set to           18
   GDM::PrEWSS: # of linearly dependent vectors =            0
   GDM::PrEWSS: Max dev from orthonormality =   2.676637383958180E-011
   GDM::BFGS:   lowest Hinv e-value    0.161451229975500     
   GDM::BFGS:   highest Hinv e-value    5.11771323919918     
   GDM::      : max scaling in EWCs is          2.82842712474619     
   GDM::      : max rotation in step is        3.593207413585463E-003
   GDM::        grad.step =  -4.243190774145836E-006
   ------- Leaving GDM -- hopefully with a step in the right direction! --------
 
   40   -1241.0992577855      1.13E-03  Gap = 0.00 eV  Normal BFGS step
 
   ------------------- Entering Geometric Direct Minimization ------------------
   GDM::trust : actual energy change is       -5.701069312635809E-006
   GDM::trust : predicted energy change was   -6.364786161218757E-006
   GDM::trust : updated trust radius is        0.330000000000000     
   GDM:         diagonal hessian shift is      0.000000000000000E+000
   GDM::PreWSS: input subspace size is                 19
   GDM::PreWSS: working subspace size set to           18
   GDM::PrEWSS: # of linearly dependent vectors =            0
   GDM::PrEWSS: Max dev from orthonormality =   4.747150589290428E-011
   GDM::BFGS:   lowest Hinv e-value    0.166963769526627     
   GDM::BFGS:   highest Hinv e-value    5.09005591753278     
   GDM::      : max scaling in EWCs is          2.82842712474619     
   GDM::      : max rotation in step is        9.322711003297729E-003
   GDM::        grad.step =  -5.364378500803561E-006
   ------- Leaving GDM -- hopefully with a step in the right direction! --------
 
   41   -1241.0992634866      1.24E-03  Gap = 0.00 eV  Normal BFGS step
 
   ------------------- Entering Geometric Direct Minimization ------------------
   GDM::trust : actual energy change is       -8.566841643187217E-006
   GDM::trust : predicted energy change was   -8.046567751205342E-006
   GDM::trust : updated trust radius is        0.330000000000000     
   GDM:         diagonal hessian shift is      0.000000000000000E+000
   GDM::PreWSS: input subspace size is                 19
   GDM::PreWSS: working subspace size set to           18
   GDM::PrEWSS: # of linearly dependent vectors =            0
   GDM::PrEWSS: Max dev from orthonormality =   7.151385039705360E-011
   GDM::BFGS:   lowest Hinv e-value    0.168744291192686     
   GDM::BFGS:   highest Hinv e-value    15.1594455164145     
   GDM::      : max scaling in EWCs is          2.82842712474619     
   GDM::      : max rotation in step is        3.944853454339918E-002
   GDM::        grad.step =  -1.767161850608534E-005
   ------- Leaving GDM -- hopefully with a step in the right direction! --------
 
   42   -1241.0992720534      1.26E-03  Gap = 0.00 eV  Normal BFGS step
 
   ------------------- Entering Geometric Direct Minimization ------------------
   GDM::trust : actual energy change is       -2.744986636571412E-005
   GDM::trust : predicted energy change was   -2.650742775912801E-005
   GDM::trust : updated trust radius is        0.330000000000000     
   GDM:         diagonal hessian shift is      0.000000000000000E+000
   GDM::PreWSS: input subspace size is                 19
   GDM::PreWSS: working subspace size set to           18
   GDM::PrEWSS: # of linearly dependent vectors =            0
   GDM::PrEWSS: Max dev from orthonormality =   3.662978392826588E-010
   GDM::BFGS:   lowest Hinv e-value    0.162244720864280     
   GDM::BFGS:   highest Hinv e-value    43.3797918674629     
   GDM::      : max scaling in EWCs is          2.82842712474619     
   GDM::      : max rotation in step is        9.736067968557269E-002
   GDM::        grad.step =  -3.698193772707913E-005
   ------- Leaving GDM -- hopefully with a step in the right direction! --------
 
   43   -1241.0992995033      1.96E-03  Gap = 0.00 eV  Normal BFGS step
 
   ------------------- Entering Geometric Direct Minimization ------------------
   GDM::trust : actual energy change is       -3.806244058068842E-005
   GDM::trust : predicted energy change was   -5.547290659061868E-005
   GDM::trust : updated trust radius is        0.330000000000000     
   GDM:         diagonal hessian shift is      0.000000000000000E+000
   GDM::PreWSS: input subspace size is                 19
   GDM::PreWSS: working subspace size set to           18
   GDM::PrEWSS: # of linearly dependent vectors =            0
   GDM::PrEWSS: Max dev from orthonormality =   1.364357168909258E-010
   GDM::BFGS:   lowest Hinv e-value    0.142545825435762     
   GDM::BFGS:   highest Hinv e-value    41.3852289330909     
   GDM::      : max scaling in EWCs is          2.82842712474619     
   GDM::      : max rotation in step is        2.890911435371711E-002
   GDM::        grad.step =  -2.862367875915558E-005
   ------- Leaving GDM -- hopefully with a step in the right direction! --------
 
   44   -1241.0993375657      5.29E-03  Gap = 0.00 eV  Normal BFGS step
 
   ------------------- Entering Geometric Direct Minimization ------------------
   GDM::trust : actual energy change is       -4.710628104476200E-005
   GDM::trust : predicted energy change was   -4.293551813873330E-005
   GDM::trust : updated trust radius is        0.330000000000000     
   GDM:         diagonal hessian shift is      0.000000000000000E+000
   GDM::PreWSS: input subspace size is                 19
   GDM::PreWSS: working subspace size set to           18
   GDM::PrEWSS: # of linearly dependent vectors =            0
   GDM::PrEWSS: Max dev from orthonormality =   2.285740381691159E-010
   GDM::BFGS:   lowest Hinv e-value    0.147497288195256     
   GDM::BFGS:   highest Hinv e-value    59.0552158283413     
   GDM::      : max scaling in EWCs is          2.82842712474619     
   GDM::      : max rotation in step is        0.105899734516438     
   GDM::        grad.step =  -5.397485033966452E-005
   ------- Leaving GDM -- hopefully with a step in the right direction! --------
 
   45   -1241.0993846720      3.52E-03  Gap = 0.00 eV  Normal BFGS step
 
   ------------------- Entering Geometric Direct Minimization ------------------
   GDM::trust : actual energy change is       -5.063818525741226E-005
   GDM::trust : predicted energy change was   -8.096227550949680E-005
   GDM::trust : updated trust radius is        0.330000000000000     
   GDM:         diagonal hessian shift is      0.000000000000000E+000
   GDM::PreWSS: input subspace size is                 19
   GDM::PreWSS: working subspace size set to           18
   GDM::PrEWSS: # of linearly dependent vectors =            1
   GDM::PrEWSS: Max dev from orthonormality =   1.851051308759954E-010
   GDM::BFGS:   lowest Hinv e-value    0.140781019423664     
   GDM::BFGS:   highest Hinv e-value    53.1086107023840     
   GDM::      : max scaling in EWCs is          2.82842712474619     
   GDM::      : max rotation in step is       -1.237438179637052E-002
   GDM::        grad.step =  -3.854660046427378E-006
   ------- Leaving GDM -- hopefully with a step in the right direction! --------
 
   46   -1241.0994353102      1.17E-03  Gap = 0.00 eV  Normal BFGS step
 
   ------------------- Entering Geometric Direct Minimization ------------------
   GDM::trust : actual energy change is       -3.108644250460202E-006
   GDM::trust : predicted energy change was   -5.781990069641066E-006
   GDM::trust : updated trust radius is        0.330000000000000     
   GDM:         diagonal hessian shift is      0.000000000000000E+000
   GDM::PreWSS: input subspace size is                 19
   GDM::PreWSS: working subspace size set to           18
   GDM::PrEWSS: # of linearly dependent vectors =            1
   GDM::PrEWSS: Max dev from orthonormality =   1.098994589776581E-009
   GDM::BFGS:   lowest Hinv e-value    0.161637182762511     
   GDM::BFGS:   highest Hinv e-value    50.2028035577437     
   GDM::      : max scaling in EWCs is          2.82842712474619     
   GDM::      : max rotation in step is        4.240801386697298E-003
   GDM::        grad.step =  -5.684741103612834E-007
   ------- Leaving GDM -- hopefully with a step in the right direction! --------
 
   47   -1241.0994384188      4.11E-04  Gap = 0.00 eV  Normal BFGS step
 
   ------------------- Entering Geometric Direct Minimization ------------------
   GDM::trust : actual energy change is       -4.284881924832007E-007
   GDM::trust : predicted energy change was   -8.527111655419254E-007
   GDM::trust : updated trust radius is        0.330000000000000     
   GDM:         diagonal hessian shift is      0.000000000000000E+000
   GDM::PreWSS: input subspace size is                 19
   GDM::PreWSS: working subspace size set to           18
   GDM::PrEWSS: # of linearly dependent vectors =            1
   GDM::PrEWSS: Max dev from orthonormality =   1.333249691204408E-010
   GDM::BFGS:   lowest Hinv e-value    0.150259399381125     
   GDM::BFGS:   highest Hinv e-value    47.2032671988671     
   GDM::      : max scaling in EWCs is          2.82842712474619     
   GDM::      : max rotation in step is       -1.213644192347016E-003
   GDM::        grad.step =  -1.690290177240402E-007
   ------- Leaving GDM -- hopefully with a step in the right direction! --------
 
   48   -1241.0994388473      3.37E-04  Gap = 0.00 eV  Normal BFGS step
 
   ------------------- Entering Geometric Direct Minimization ------------------
   GDM::trust : actual energy change is       -6.816617315053008E-008
   GDM::trust : predicted energy change was   -2.535435265860602E-007
   GDM::trust : updated trust radius is        0.330000000000000     
   GDM:         diagonal hessian shift is      0.000000000000000E+000
   GDM::PreWSS: input subspace size is                 19
   GDM::PreWSS: working subspace size set to           18
   GDM::PrEWSS: # of linearly dependent vectors =            0
   GDM::PrEWSS: Max dev from orthonormality =   5.674610711881023E-010
   GDM::BFGS:   lowest Hinv e-value    0.137796680325454     
   GDM::BFGS:   highest Hinv e-value    44.9926952383755     
   GDM::      : max scaling in EWCs is          2.82842712474619     
   GDM::      : max rotation in step is        1.148300745935119E-003
   GDM::        grad.step =  -7.501325413350227E-008
   ------- Leaving GDM -- hopefully with a step in the right direction! --------
 
   49   -1241.0994389155      2.34E-04  Gap = 0.00 eV  Normal BFGS step
 
   ------------------- Entering Geometric Direct Minimization ------------------
   GDM::trust : actual energy change is       -5.058586793893483E-008
   GDM::trust : predicted energy change was   -1.125198812002534E-007
   GDM::trust : updated trust radius is        0.330000000000000     
   GDM:         diagonal hessian shift is      0.000000000000000E+000
   GDM::PreWSS: input subspace size is                 19
   GDM::PreWSS: working subspace size set to           18
   GDM::PrEWSS: # of linearly dependent vectors =            0
   GDM::PrEWSS: Max dev from orthonormality =   3.989063870890597E-010
   GDM::BFGS:   lowest Hinv e-value    0.147368925779113     
   GDM::BFGS:   highest Hinv e-value    46.0211445473506     
   GDM::      : max scaling in EWCs is          2.82842712474619     
   GDM::      : max rotation in step is        4.626300822446999E-004
   GDM::        grad.step =  -2.331334284354311E-008
   ------- Leaving GDM -- hopefully with a step in the right direction! --------
 
   50   -1241.0994389661      1.06E-04  Gap = 0.00 eV  Normal BFGS step
 
   ------------------- Entering Geometric Direct Minimization ------------------
   GDM::trust : actual energy change is        2.660272002685815E-010
   GDM::trust : predicted energy change was   -3.497001426531468E-008
   GDM::trust : updated trust radius is        0.108900000000000     
   GDM::WARNING energy changes are now smaller than effective accuracy.
   GDM::        calculation will continue, but THRESH should be increased
   GDM::        or SCF_CONVERGENCE decreased.
   GDM::        effective_thresh =   1.098994589776581E-009
   GDM:         diagonal hessian shift is      0.000000000000000E+000
   GDM::PreWSS: input subspace size is                 19
   GDM::PreWSS: working subspace size set to           18
   GDM::PrEWSS: # of linearly dependent vectors =            0
   GDM::PrEWSS: Max dev from orthonormality =   4.102850212350795E-010
   GDM::BFGS:   lowest Hinv e-value    0.146517071806402     
   GDM::BFGS:   highest Hinv e-value    45.2446762953089     
   GDM::      : max scaling in EWCs is          2.82842712474619     
   GDM::      : max rotation in step is       -5.102132695640370E-004
   GDM::        grad.step =  -1.675156936868877E-008
   ------- Leaving GDM -- hopefully with a step in the right direction! --------
 
   51   -1241.0994389658      6.86E-05  Gap = 0.00 eV  Normal BFGS step
 
   ------------------- Entering Geometric Direct Minimization ------------------
   GDM::trust : actual energy change is       -1.340231392532587E-008
   GDM::trust : predicted energy change was   -2.512735405303316E-008
   GDM::trust : updated trust radius is        0.330000000000000     
   GDM:         diagonal hessian shift is      0.000000000000000E+000
   GDM::PreWSS: input subspace size is                 19
   GDM::PreWSS: working subspace size set to           18
   GDM::PrEWSS: # of linearly dependent vectors =            0
   GDM::PrEWSS: Max dev from orthonormality =   1.824175185904942E-010
   GDM::BFGS:   lowest Hinv e-value    0.149260653272268     
   GDM::BFGS:   highest Hinv e-value    44.1631896029473     
   GDM::      : max scaling in EWCs is          2.82842712474619     
   GDM::      : max rotation in step is        1.325945133163805E-004
   GDM::        grad.step =  -2.615558278051778E-009
   ------- Leaving GDM -- hopefully with a step in the right direction! --------
 
   52   -1241.0994389792      2.79E-05  Gap = 0.00 eV  Normal BFGS step
 
   ------------------- Entering Geometric Direct Minimization ------------------
   GDM::trust : actual energy change is        1.136868377216160E-011
   GDM::trust : predicted energy change was   -3.923337417077666E-009
   GDM::trust : updated trust radius is        0.108900000000000     
   GDM::WARNING energy changes are now smaller than effective accuracy.
   GDM::        calculation will continue, but THRESH should be increased
   GDM::        or SCF_CONVERGENCE decreased.
   GDM::        effective_thresh =   1.098994589776581E-009
   GDM:         diagonal hessian shift is      0.000000000000000E+000
   GDM::PreWSS: input subspace size is                 19
   GDM::PreWSS: working subspace size set to           18
   GDM::PrEWSS: # of linearly dependent vectors =            0
   GDM::PrEWSS: Max dev from orthonormality =   1.075173630682436E-010
   GDM::BFGS:   lowest Hinv e-value    0.150472831308140     
   GDM::BFGS:   highest Hinv e-value    44.7947860665297     
   GDM::      : max scaling in EWCs is          2.82842712474619     
   GDM::      : max rotation in step is        4.857341064742340E-005
   GDM::        grad.step =  -1.907604016930688E-009
   ------- Leaving GDM -- hopefully with a step in the right direction! --------
 
   53   -1241.0994389792      4.13E-05  Gap = 0.00 eV  Normal BFGS step
 
   ------------------- Entering Geometric Direct Minimization ------------------
   GDM::trust : actual energy change is       -1.393573256791569E-009
   GDM::trust : predicted energy change was   -2.861406025396032E-009
   GDM::trust : updated trust radius is        0.330000000000000     
   GDM:         diagonal hessian shift is      0.000000000000000E+000
   GDM::PreWSS: input subspace size is                 19
   GDM::PreWSS: working subspace size set to           18
   GDM::PrEWSS: # of linearly dependent vectors =            0
   GDM::PrEWSS: Max dev from orthonormality =   4.479070170315680E-010
   GDM::BFGS:   lowest Hinv e-value    0.150912448423441     
   GDM::BFGS:   highest Hinv e-value    45.7168785465050     
   GDM::      : max scaling in EWCs is          2.82842712474619     
   GDM::      : max rotation in step is       -8.125508806059563E-005
   GDM::        grad.step =  -3.601617517107198E-010
   ------- Leaving GDM -- hopefully with a step in the right direction! --------
 
   54   -1241.0994389806      4.57E-06  Gap = 0.00 eV  Normal BFGS step
 
   ------------------- Entering Geometric Direct Minimization ------------------
   GDM::trust : actual energy change is       -2.000888343900442E-010
   GDM::trust : predicted energy change was   -5.402426275660795E-010
   GDM::trust : updated trust radius is        0.330000000000000     
   GDM:         diagonal hessian shift is      0.000000000000000E+000
   GDM::PreWSS: input subspace size is                 19
   GDM::PreWSS: working subspace size set to           18
   GDM::PrEWSS: # of linearly dependent vectors =            0
   GDM::PrEWSS: Max dev from orthonormality =   8.521377631298677E-010
   GDM::BFGS:   lowest Hinv e-value    0.147247197116419     
   GDM::BFGS:   highest Hinv e-value    45.5199690353687     
   GDM::      : max scaling in EWCs is          2.82842712474619     
   GDM::      : max rotation in step is        2.429690301537810E-005
   GDM::        grad.step =  -6.762950487961063E-011
   ------- Leaving GDM -- hopefully with a step in the right direction! --------
 
   55   -1241.0994389808      3.69E-06  Gap = 0.00 eV  Normal BFGS step
 
   ------------------- Entering Geometric Direct Minimization ------------------
   GDM::trust : actual energy change is       -6.298250809777528E-011
   GDM::trust : predicted energy change was   -1.014442573194159E-010
   GDM::trust : updated trust radius is        0.330000000000000     
   GDM:         diagonal hessian shift is      0.000000000000000E+000
   GDM::PreWSS: input subspace size is                 19
   GDM::PreWSS: working subspace size set to           18
   GDM::PrEWSS: # of linearly dependent vectors =            0
   GDM::PrEWSS: Max dev from orthonormality =   2.369503204757706E-010
   GDM::BFGS:   lowest Hinv e-value    0.148927570889637     
   GDM::BFGS:   highest Hinv e-value    43.5317651490376     
   GDM::      : max scaling in EWCs is          2.82842712474619     
   GDM::      : max rotation in step is       -6.796580797636319E-006
   GDM::        grad.step =  -2.379111915639368E-012
   ------- Leaving GDM -- hopefully with a step in the right direction! --------
 
   56   -1241.0994389809      3.69E-07  Gap = 0.00 eV  Normal BFGS step
 
   ------------------- Entering Geometric Direct Minimization ------------------
   GDM::trust : actual energy change is        4.547473508864641E-013
   GDM::trust : predicted energy change was   -3.568667873459053E-012
   GDM::trust : updated trust radius is        0.108900000000000     
   GDM::WARNING energy changes are now smaller than effective accuracy.
   GDM::        calculation will continue, but THRESH should be increased
   GDM::        or SCF_CONVERGENCE decreased.
   GDM::        effective_thresh =   1.098994589776581E-009
   GDM:         diagonal hessian shift is      0.000000000000000E+000
   GDM::PreWSS: input subspace size is                 19
   GDM::PreWSS: working subspace size set to           18
   GDM::PrEWSS: # of linearly dependent vectors =            0
   GDM::PrEWSS: Max dev from orthonormality =   3.490075381473723E-010
   GDM::BFGS:   lowest Hinv e-value    0.151193926007159     
   GDM::BFGS:   highest Hinv e-value    41.7574622900811     
   GDM::      : max scaling in EWCs is          2.82842712474619     
   GDM::      : max rotation in step is        3.848176193043156E-006
   GDM::        grad.step =  -1.960622195185869E-012
   ------- Leaving GDM -- hopefully with a step in the right direction! --------
 
   57   -1241.0994389809      8.61E-07  Gap = 0.00 eV  Normal BFGS step
 
   ------------------- Entering Geometric Direct Minimization ------------------
   GDM::trust : actual energy change is       -1.818989403545856E-012
   GDM::trust : predicted energy change was   -2.940933292778804E-012
   GDM::trust : updated trust radius is        0.330000000000000     
   GDM:         diagonal hessian shift is      0.000000000000000E+000
   GDM::PreWSS: input subspace size is                 19
   GDM::PreWSS: working subspace size set to           18
   GDM::PrEWSS: # of linearly dependent vectors =            1
   GDM::PrEWSS: Max dev from orthonormality =   7.207357627381228E-011
   GDM::BFGS:   lowest Hinv e-value    0.150836979489693     
   GDM::BFGS:   highest Hinv e-value    41.2973485058984     
   GDM::      : max scaling in EWCs is          2.82842712474619     
   GDM::      : max rotation in step is       -1.792332968067972E-006
   GDM::        grad.step =  -4.290676396944918E-013
   ------- Leaving GDM -- hopefully with a step in the right direction! --------
 
   58   -1241.0994389809      3.34E-07  Gap = 0.00 eV  Normal BFGS step
 
   ------------------- Entering Geometric Direct Minimization ------------------
   GDM::trust : actual energy change is        2.273736754432321E-013
   GDM::trust : predicted energy change was   -6.436014595417379E-013
   GDM::trust : updated trust radius is        0.108900000000000     
   GDM::WARNING energy changes are now smaller than effective accuracy.
   GDM::        calculation will continue, but THRESH should be increased
   GDM::        or SCF_CONVERGENCE decreased.
   GDM::        effective_thresh =   1.098994589776581E-009
   GDM:         diagonal hessian shift is      0.000000000000000E+000
   GDM::PreWSS: input subspace size is                 19
   GDM::PreWSS: working subspace size set to           18
   GDM::PrEWSS: # of linearly dependent vectors =            0
   GDM::PrEWSS: Max dev from orthonormality =   2.646766625313823E-010
   GDM::BFGS:   lowest Hinv e-value    0.162032452510536     
   GDM::BFGS:   highest Hinv e-value    43.2295548681516     
   GDM::      : max scaling in EWCs is          2.82842712474619     
   GDM::      : max rotation in step is       -1.422691029849209E-006
   GDM::        grad.step =  -1.383486164912955E-013
   ------- Leaving GDM -- hopefully with a step in the right direction! --------
 
   59   -1241.0994389809      2.34E-07  Gap = 0.00 eV  Normal BFGS step
 
   ------------------- Entering Geometric Direct Minimization ------------------
   GDM::trust : actual energy change is        1.136868377216160E-012
   GDM::trust : predicted energy change was   -2.075229247369433E-013
   GDM::trust : updated trust radius is        0.108900000000000     
   GDM::WARNING energy changes are now smaller than effective accuracy.
   GDM::        calculation will continue, but THRESH should be increased
   GDM::        or SCF_CONVERGENCE decreased.
   GDM::        effective_thresh =   1.098994589776581E-009
   GDM:         diagonal hessian shift is      0.000000000000000E+000
   GDM::PreWSS: input subspace size is                 19
   GDM::PreWSS: working subspace size set to           18
   GDM::PrEWSS: # of linearly dependent vectors =            0
   GDM::PrEWSS: Max dev from orthonormality =   2.521466785365689E-010
   GDM::BFGS:   lowest Hinv e-value    0.178268834098010     
   GDM::BFGS:   highest Hinv e-value    45.1969508033448     
   GDM::      : max scaling in EWCs is          2.82842712474619     
   GDM::      : max rotation in step is       -1.135226334813943E-006
   GDM::        grad.step =  -3.546985292166209E-014
   ------- Leaving GDM -- hopefully with a step in the right direction! --------
 
   60   -1241.0994389809      1.08E-07  Gap = 0.00 eV  Normal BFGS step
 
   ------------------- Entering Geometric Direct Minimization ------------------
   GDM::trust : actual energy change is       -6.821210263296962E-013
   GDM::trust : predicted energy change was   -5.320477938249314E-014
   GDM::trust : updated trust radius is        0.330000000000000     
   GDM:         diagonal hessian shift is      0.000000000000000E+000
   GDM::PreWSS: input subspace size is                 19
   GDM::PreWSS: working subspace size set to           17
   GDM::PrEWSS: # of linearly dependent vectors =            0
   GDM::PrEWSS: Max dev from orthonormality =   5.432303218366741E-011
   GDM::BFGS:   lowest Hinv e-value    0.178100760476455     
   GDM::BFGS:   highest Hinv e-value    48.5074648830114     
   GDM::      : max scaling in EWCs is          2.82842712474619     
   GDM::      : max rotation in step is       -5.603189626043431E-007
   GDM::        grad.step =  -5.168412811559572E-015
   ------- Leaving GDM -- hopefully with a step in the right direction! --------
 
   61   -1241.0994389809      2.65E-08  Gap = 0.00 eV  Normal BFGS step
 
   ------------------- Entering Geometric Direct Minimization ------------------
   GDM::trust : actual energy change is        6.821210263296962E-013
   GDM::trust : predicted energy change was   -7.752619217339359E-015
   GDM::trust : updated trust radius is        0.108900000000000     
   GDM::WARNING energy changes are now smaller than effective accuracy.
   GDM::        calculation will continue, but THRESH should be increased
   GDM::        or SCF_CONVERGENCE decreased.
   GDM::        effective_thresh =   1.098994589776581E-009
   GDM:         diagonal hessian shift is      0.000000000000000E+000
   GDM::PreWSS: input subspace size is                 18
   GDM::PreWSS: working subspace size set to           17
   GDM::PrEWSS: # of linearly dependent vectors =            0
   GDM::PrEWSS: Max dev from orthonormality =   5.689903062600088E-011
   GDM::BFGS:   lowest Hinv e-value    0.159617307777676     
   GDM::BFGS:   highest Hinv e-value    46.2005318664519     
   GDM::      : max scaling in EWCs is          2.82842712474619     
   GDM::      : max rotation in step is       -1.772797616200390E-008
   GDM::        grad.step =  -8.503771808222436E-016
   ------- Leaving GDM -- hopefully with a step in the right direction! --------
 
   62   -1241.0994389809      1.30E-08  Gap = 0.00 eV  Normal BFGS step
 
   ------------------- Entering Geometric Direct Minimization ------------------
   GDM::trust : actual energy change is       -2.273736754432321E-013
   GDM::trust : predicted energy change was   -1.275565771233366E-015
   GDM::trust : updated trust radius is        0.330000000000000     
   GDM:         diagonal hessian shift is      0.000000000000000E+000
   GDM::PreWSS: input subspace size is                 18
   GDM::PreWSS: working subspace size set to           17
   GDM::PrEWSS: # of linearly dependent vectors =            0
   GDM::PrEWSS: Max dev from orthonormality =   3.549006921677034E-011
   GDM::BFGS:   lowest Hinv e-value    0.156145126694208     
   GDM::BFGS:   highest Hinv e-value    51.4277695980470     
   GDM::      : max scaling in EWCs is          2.82842712474619     
   GDM::      : max rotation in step is        1.173971550009172E-007
   GDM::        grad.step =  -1.184670224291222E-016
   ------- Leaving GDM -- hopefully with a step in the right direction! --------
 
   63   -1241.0994389809      3.29E-09 Convergence criterion met
 ---------------------------------------
 One-Electron    Energy = -2227.9873825828
 Total Coulomb   Energy =   819.0588581397
 Alpha Exchange  Energy =    -8.0403660251
 Beta  Exchange  Energy =    -8.0403660251
 DFT   Exchange  Energy =   -64.0098973981
 DFT Correlation Energy =    -2.9824170931
 Nuclear Repu.   Energy =   250.9021320036
 Nuclear Attr.   Energy = -3444.7218113361
 Kinetic         Energy =  1216.7344287534
 SCF time:  CPU 233.12 s  wall 48.90 s
 SCF   energy in the final basis set = -1241.0994389809
 Total energy in the final basis set = -1241.0994389809
 
 --------------------------------------------------------------
 
                    Orbital Energies (a.u.)
 --------------------------------------------------------------
 
 Alpha MOs
 -- Occupied --
-88.875 -88.875 -88.874  -7.957  -7.956  -7.955  -5.921  -5.920
 -5.920  -5.914  -5.914  -5.913  -5.913  -5.911  -5.911  -2.066
 -1.283  -1.276  -1.267  -0.704  -0.681  -0.677  -0.349  -0.348
 -0.335  -0.323  -0.322  -0.293  -0.278  -0.266
 -- Virtual --
 -0.249  -0.135  -0.077  -0.072  -0.021  -0.019   0.003   0.005
  0.015   0.016   0.067   0.069   0.072   0.072   0.079   0.084
  0.098   0.102   0.117   0.120   0.120   0.130   0.131   0.214
  0.219   0.222   0.242   0.247   0.339   0.339   0.409   0.504
  0.506   0.513   0.520   0.545   0.553   0.554   0.585   0.587
  0.683   0.687   0.735   0.748   0.749   0.758   0.763   0.785
  0.798   0.822   0.824   0.828   0.832   0.868   0.871   0.909
  0.912   7.521
 --------------------------------------------------------------
 
          Ground-State Mulliken Net Atomic Charges

     Atom                 Charge (a.u.)
  ----------------------------------------
      1 Zr                    0.714329
      2 S                    -0.232783
      3 S                    -0.245952
      4 S                    -0.235594
  ----------------------------------------
  Sum of atomic charges =     0.000000

 -----------------------------------------------------------------
                    Cartesian Multipole Moments
 -----------------------------------------------------------------
    Charge (ESU x 10^10)
                 0.0000
    Dipole Moment (Debye)
         X      -0.0327      Y       0.0987      Z       0.0000
       Tot       0.1040
    Quadrupole Moments (Debye-Ang)
        XX     -66.9999     XY       0.7800     YY     -67.4601
        XZ       0.0000     YZ       0.0000     ZZ     -58.5478
    Octopole Moments (Debye-Ang^2)
       XXX      -2.0375    XXY       3.6573    XYY      -4.8959
       YYY       6.5964    XXZ       0.0000    XYZ       0.0000
       YYZ       0.0000    XZZ      -0.0392    YZZ       0.0645
[...]
   GDM::trust : actual energy change is        3.932427716790698E-009
   GDM::trust : predicted energy change was   -1.245978973050597E-008
   GDM::trust : updated trust radius is        0.108900000000000     
   GDM::WARNING energy changes are now smaller than effective accuracy.
   GDM::        calculation will continue, but THRESH should be increased
   GDM::        or SCF_CONVERGENCE decreased.
   GDM::        effective_thresh =   4.502561212760270E-009
   GDM:         diagonal hessian shift is      0.000000000000000E+000
   GDM::PreWSS: input subspace size is                  6
   GDM::PreWSS: working subspace size set to            6
   GDM::PrEWSS: # of linearly dependent vectors =            4
   GDM::PrEWSS: Max dev from orthonormality =   1.695327905837374E-012
   GDM::BFGS:   lowest Hinv e-value    0.211296464287348     
   GDM::BFGS:   highest Hinv e-value    1.52638144842240     
   GDM::      : max scaling in EWCs is          2.38109180140158     
   GDM::      : max rotation in step is        4.537288796798632E-005
   GDM::        grad.step =  -8.580101594712020E-009
   ------- Leaving GDM -- hopefully with a step in the right direction! --------
 
    7   -1241.2109416305      6.22E-05  Gap = 0.00 eV  Normal BFGS step
 
   ------------------- Entering Geometric Direct Minimization ------------------
   GDM::trust : actual energy change is       -7.399194146273658E-009
   GDM::trust : predicted energy change was   -1.287015239206803E-008
   GDM::trust : updated trust radius is        0.330000000000000     
   GDM:         diagonal hessian shift is      0.000000000000000E+000
   GDM::PreWSS: input subspace size is                  7
   GDM::PreWSS: working subspace size set to            7
   GDM::PrEWSS: # of linearly dependent vectors =            5
   GDM::PrEWSS: Max dev from orthonormality =   1.256578174846368E-012
   GDM::BFGS:   lowest Hinv e-value    0.211222273838641     
   GDM::BFGS:   highest Hinv e-value    1.55656517095873     
   GDM::      : max scaling in EWCs is          2.38156537301986     
   GDM::      : max rotation in step is       -8.571414292078890E-006
   GDM::        grad.step =  -1.253989851941121E-009
   ------- Leaving GDM -- hopefully with a step in the right direction! --------
 
    8   -1241.2109416379      8.89E-06  Gap = 0.00 eV  Normal BFGS step
 
   ------------------- Entering Geometric Direct Minimization ------------------
   GDM::trust : actual energy change is        1.389253156958148E-010
   GDM::trust : predicted energy change was   -1.880984777911682E-009
   GDM::trust : updated trust radius is        0.108900000000000     
   GDM::WARNING energy changes are now smaller than effective accuracy.
   GDM::        calculation will continue, but THRESH should be increased
   GDM::        or SCF_CONVERGENCE decreased.
   GDM::        effective_thresh =   4.502561212760270E-009
   GDM:         diagonal hessian shift is      0.000000000000000E+000
   GDM::PreWSS: input subspace size is                  8
   GDM::PreWSS: working subspace size set to            8
   GDM::PrEWSS: # of linearly dependent vectors =            6
   GDM::PrEWSS: Max dev from orthonormality =   5.756610466089995E-012
   GDM::BFGS:   lowest Hinv e-value    0.211113709195421     
   GDM::BFGS:   highest Hinv e-value    1.52222986630871     
   GDM::      : max scaling in EWCs is          2.38150563948846     
   GDM::      : max rotation in step is        7.439303145193865E-006
   GDM::        grad.step =  -8.793193123178731E-010
   ------- Leaving GDM -- hopefully with a step in the right direction! --------
 
    9   -1241.2109416377      1.25E-05  Gap = 0.00 eV  Normal BFGS step
 
   ------------------- Entering Geometric Direct Minimization ------------------
   GDM::trust : actual energy change is       -7.084963726811111E-010
   GDM::trust : predicted energy change was   -1.318978968476810E-009
   GDM::trust : updated trust radius is        0.330000000000000     
   GDM:         diagonal hessian shift is      0.000000000000000E+000
   GDM::PreWSS: input subspace size is                  9
   GDM::PreWSS: working subspace size set to            9
   GDM::PrEWSS: # of linearly dependent vectors =            8
   GDM::PrEWSS: Max dev from orthonormality =   4.732325642464730E-015
   GDM::BFGS:   lowest Hinv e-value    0.211336880282941     
   GDM::BFGS:   highest Hinv e-value    1.62376566901822     
   GDM::      : max scaling in EWCs is          2.38150599961117     
   GDM::      : max rotation in step is       -4.568873175587125E-006
   GDM::        grad.step =  -2.006813104513598E-010
   ------- Leaving GDM -- hopefully with a step in the right direction! --------
 
   10   -1241.2109416384      5.44E-06  Gap = 0.00 eV  Normal BFGS step
 
   ------------------- Entering Geometric Direct Minimization ------------------
   GDM::trust : actual energy change is        1.045918907038867E-011
   GDM::trust : predicted energy change was   -3.010219656770396E-010
   GDM::trust : updated trust radius is        0.108900000000000     
   GDM::WARNING energy changes are now smaller than effective accuracy.
   GDM::        calculation will continue, but THRESH should be increased
   GDM::        or SCF_CONVERGENCE decreased.
   GDM::        effective_thresh =   4.502561212760270E-009
   GDM:         diagonal hessian shift is      0.000000000000000E+000
   GDM::PreWSS: input subspace size is                 10
   GDM::PreWSS: working subspace size set to           10
   GDM::PrEWSS: # of linearly dependent vectors =            9
   GDM::PrEWSS: Max dev from orthonormality =   2.531655440840552E-014
   GDM::BFGS:   lowest Hinv e-value    0.211035584017408     
   GDM::BFGS:   highest Hinv e-value    1.41522516094179     
   GDM::      : max scaling in EWCs is          2.38151170059972     
   GDM::      : max rotation in step is        2.052104530771638E-006
   GDM::        grad.step =  -1.195037800517079E-010
   ------- Leaving GDM -- hopefully with a step in the right direction! --------
 
   11   -1241.2109416384      3.45E-06  Gap = 0.00 eV  Normal BFGS step
 
   ------------------- Entering Geometric Direct Minimization ------------------
   GDM::trust : actual energy change is       -1.173248165287077E-010
   GDM::trust : predicted energy change was   -1.792556700775619E-010
   GDM::trust : updated trust radius is        0.330000000000000     
   GDM:         diagonal hessian shift is      0.000000000000000E+000
   GDM::PreWSS: input subspace size is                 11
   GDM::PreWSS: working subspace size set to           11
   GDM::PrEWSS: # of linearly dependent vectors =           10
   GDM::PrEWSS: Max dev from orthonormality =   2.106925744982391E-013
   GDM::BFGS:   lowest Hinv e-value    0.211063255161111     
   GDM::BFGS:   highest Hinv e-value    1.42019025276822     
   GDM::      : max scaling in EWCs is          2.38150955615324     
   GDM::      : max rotation in step is       -2.002686995042384E-007
   GDM::        grad.step =  -2.042525345610442E-013
   ------- Leaving GDM -- hopefully with a step in the right direction! --------
 
   12   -1241.2109416385      1.03E-07  Gap = 0.00 eV  Normal BFGS step
 
   ------------------- Entering Geometric Direct Minimization ------------------
   GDM::trust : actual energy change is        4.547473508864641E-013
   GDM::trust : predicted energy change was   -3.063788018415663E-013
   GDM::trust : updated trust radius is        0.108900000000000     
   GDM::WARNING energy changes are now smaller than effective accuracy.
   GDM::        calculation will continue, but THRESH should be increased
   GDM::        or SCF_CONVERGENCE decreased.
   GDM::        effective_thresh =   4.502561212760270E-009
   GDM:         diagonal hessian shift is      0.000000000000000E+000
   GDM::PreWSS: input subspace size is                 12
   GDM::PreWSS: working subspace size set to           12
   GDM::PrEWSS: # of linearly dependent vectors =           11
   GDM::PrEWSS: Max dev from orthonormality =   1.843716151972430E-013
   GDM::BFGS:   lowest Hinv e-value    0.210875827117390     
   GDM::BFGS:   highest Hinv e-value    1.40282785714456     
   GDM::      : max scaling in EWCs is          2.38150939968386     
   GDM::      : max rotation in step is       -5.679274907017461E-008
   GDM::        grad.step =  -2.950179465081386E-014
   ------- Leaving GDM -- hopefully with a step in the right direction! --------
 
   13   -1241.2109416385      4.79E-08  Gap = 0.00 eV  Normal BFGS step
 
   ------------------- Entering Geometric Direct Minimization ------------------
   GDM::trust : actual energy change is        6.821210263296962E-013
   GDM::trust : predicted energy change was   -4.425269197622079E-014
   GDM::trust : updated trust radius is        0.108900000000000     
   GDM::WARNING energy changes are now smaller than effective accuracy.
   GDM::        calculation will continue, but THRESH should be increased
   GDM::        or SCF_CONVERGENCE decreased.
   GDM::        effective_thresh =   4.502561212760270E-009
   GDM:         diagonal hessian shift is      0.000000000000000E+000
   GDM::PreWSS: input subspace size is                 13
   GDM::PreWSS: working subspace size set to           13
   GDM::PrEWSS: # of linearly dependent vectors =           12
   GDM::PrEWSS: Max dev from orthonormality =   1.672412208719720E-013
   GDM::BFGS:   lowest Hinv e-value    0.210937891289535     
   GDM::BFGS:   highest Hinv e-value    1.39712772395134     
   GDM::      : max scaling in EWCs is          2.38150941405345     
   GDM::      : max rotation in step is       -3.535566711159704E-008
   GDM::        grad.step =  -6.959995847635762E-016
   ------- Leaving GDM -- hopefully with a step in the right direction! --------
 
   14   -1241.2109416385      1.60E-08  Gap = 0.00 eV  Normal BFGS step
 
   ------------------- Entering Geometric Direct Minimization ------------------
   GDM::trust : actual energy change is       -6.821210263296962E-013
   GDM::trust : predicted energy change was   -1.043999377145365E-015
   GDM::trust : updated trust radius is        0.330000000000000     
   GDM:         diagonal hessian shift is      0.000000000000000E+000
   GDM::PreWSS: input subspace size is                 14
   GDM::PreWSS: working subspace size set to           12
   GDM::PrEWSS: # of linearly dependent vectors =            9
   GDM::PrEWSS: Max dev from orthonormality =   5.837413885600995E-012
   GDM::BFGS:   lowest Hinv e-value    0.289557091472453     
   GDM::BFGS:   highest Hinv e-value    1.85078255241117     
   GDM::      : max scaling in EWCs is          2.38150941921275     
   GDM::      : max rotation in step is       -1.914349462600274E-008
   GDM::        grad.step =  -9.954213639771032E-017
   ------- Leaving GDM -- hopefully with a step in the right direction! --------
 
   15   -1241.2109416385      5.59E-09 Convergence criterion met
 ---------------------------------------
 One-Electron    Energy = -2236.1882663093
 Total Coulomb   Energy =   823.2409084626
 Alpha Exchange  Energy =    -8.0379832611
 Beta  Exchange  Energy =    -8.0379832611
 DFT   Exchange  Energy =   -63.9327794620
 DFT Correlation Energy =    -2.9783616089
 Nuclear Repu.   Energy =   254.7235238012
 Nuclear Attr.   Energy = -3452.0992423772
 Kinetic         Energy =  1215.9109760680
 SCF time:  CPU 46.70 s  wall 5.38 s
 SCF   energy in the final basis set = -1241.2109416385
 Total energy in the final basis set = -1241.2109416385
 
 --------------------------------------------------------------
 
                    Orbital Energies (a.u.)
 --------------------------------------------------------------
 
 Alpha MOs
 -- Occupied --
-88.900 -88.872 -88.833  -7.977  -7.947  -7.912  -5.940  -5.934
 -5.934  -5.913  -5.904  -5.903  -5.872  -5.872  -5.870  -2.094
 -1.298  -1.296  -1.287  -0.781  -0.650  -0.628  -0.379  -0.359
 -0.346  -0.313  -0.281  -0.272  -0.254  -0.238
 -- Virtual --
 -0.150  -0.126  -0.118  -0.092  -0.080  -0.048  -0.017   0.004
  0.013   0.022   0.062   0.064   0.066   0.073   0.076   0.080
  0.093   0.107   0.112   0.113   0.121   0.133   0.140   0.150
  0.196   0.211   0.232   0.233   0.286   0.310   0.456   0.468
  0.487   0.501   0.520   0.535   0.544   0.551   0.577   0.604
  0.637   0.664   0.670   0.727   0.758   0.769   0.777   0.795
  0.817   0.819   0.834   0.850   0.855   0.888   0.895   0.957
  1.195   3.967
 --------------------------------------------------------------
 
          Ground-State Mulliken Net Atomic Charges

     Atom                 Charge (a.u.)
  ----------------------------------------
      1 Zr                    0.666860
      2 S                    -0.173769
      3 S                    -0.372488
      4 S                    -0.120603
  ----------------------------------------
  Sum of atomic charges =     0.000000

 -----------------------------------------------------------------
                    Cartesian Multipole Moments
 -----------------------------------------------------------------
    Charge (ESU x 10^10)
                 0.0000
    Dipole Moment (Debye)
         X       3.0500      Y       1.7632      Z       0.0000
       Tot       3.5230
    Quadrupole Moments (Debye-Ang)
        XX     -60.1227     XY       8.3400     YY     -80.0153
        XZ       0.0000     YZ       0.0000     ZZ     -59.5787
    Octopole Moments (Debye-Ang^2)
       XXX     -13.2077    XXY      11.5817    XYY     -16.2543
       YYY      20.0294    XXZ       0.0000    XYZ       0.0000
       YYZ       0.0000    XZZ      -2.4463    YZZ       0.3665
       ZZZ       0.0000
    Hexadecapole Moments (Debye-Ang^3)
      XXXX    -467.8137   XXXY     199.1839   XXYY    -257.0783
      XYYY     226.4115   YYYY   -1053.7415   XXXZ       0.0000
      XXYZ       0.0000   XYYZ       0.0000   YYYZ       0.0000
      XXZZ     -92.5380   XYZZ      61.5162   YYZZ    -185.1395
      XZZZ       0.0000   YZZZ       0.0000   ZZZZ     -88.3914
 -----------------------------------------------------------------
 Calculating analytic gradient of the SCF energy
 Gradient of SCF Energy
            1           2           3           4
    1   0.0000462  -0.0000063  -0.0000357  -0.0000042
    2  -0.0001640   0.0000397   0.0001178   0.0000065
    3   0.0000000  -0.0000000  -0.0000000  -0.0000000
 Max gradient component =       1.640E-04
 RMS gradient           =       6.181E-05
 Gradient time:  CPU 11.06 s  wall 3.64 s
 Geometry Optimization Parameters
   NAtoms,    NIC,     NZ,  NCons,   NDum,   NFix, NCnnct, MaxDiis
        4      17       0       0       0       0       0       0

 Cartesian Hessian Update
 Hessian Updated using BFGS Update


** GEOMETRY OPTIMIZATION IN CARTESIAN COORDINATES **
   Searching for a Minimum

   Optimization Cycle:  53

                       Coordinates (Angstroms)
     ATOM                X               Y               Z
      1  Zr        0.7618919349   -0.1456795856    0.0000000000
      2  S        -0.3974698595    2.1626176005    0.0000000000
      3  S         1.1698182821   -2.3536156068    0.0000000000
      4  S        -1.5342203575    0.3366175919    0.0000000000
   Point Group: c1    Number of degrees of freedom:     6


   Energy is  -1241.210941639


 Translations and Rotations Projected Out of Hessian

  5 Hessian modes will be used to form the next step
  Hessian Eigenvalues:
     0.013039    0.094803    0.213567    0.349387    0.678800

 Minimum Search - Taking Simple RFO Step
 Searching for Lamda that Minimizes Along All modes
 Value Taken    Lamda =   0.00000000
 Step Taken.  Stepsize is  0.000625

                             Maximum     Tolerance    Cnvgd?
         Gradient           0.000164      0.000300     YES
         Displacement       0.000314      0.001200     YES
         Energy change     -0.000005      0.000001      NO


                       Distance Matrix (Angstroms)
             Zr(  1)   S (  2)   S (  3)
   S (  2)  2.583090
   S (  3)  2.245303  4.780455
   S (  4)  2.346219  2.150925  3.814339
 
 Final energy is   -1241.21094163855     


 ******************************
 **  OPTIMIZATION CONVERGED  **
 ******************************

                       Coordinates (Angstroms)
     ATOM                X               Y               Z
      1  Zr        0.7618919349   -0.1456795856    0.0000000000
      2  S        -0.3974698595    2.1626176005    0.0000000000
      3  S         1.1698182821   -2.3536156068    0.0000000000
      4  S        -1.5342203575    0.3366175919    0.0000000000

Z-matrix Print:
$molecule
0 1
Zr
S  1 2.245303
S  1 2.346219 2 112.330117
S  3 2.150925 1 69.958749 2 -180.000000 0
$end

 
 --------------------------------------------------------------
 
                    Orbital Energies (a.u.)
 --------------------------------------------------------------
 
 Alpha MOs
 -- Occupied --
-88.900 -88.872 -88.833  -7.977  -7.947  -7.912  -5.940  -5.934
 -5.934  -5.913  -5.904  -5.903  -5.872  -5.872  -5.870  -2.094
 -1.298  -1.296  -1.287  -0.781  -0.650  -0.628  -0.379  -0.359
 -0.346  -0.313  -0.281  -0.272  -0.254  -0.238
 -- Virtual --
 -0.150  -0.126  -0.118  -0.092  -0.080  -0.048  -0.017   0.004
  0.013   0.022   0.062   0.064   0.066   0.073   0.076   0.080
  0.093   0.107   0.112   0.113   0.121   0.133   0.140   0.150
  0.196   0.211   0.232   0.233   0.286   0.310   0.456   0.468
  0.487   0.501   0.520   0.535   0.544   0.551   0.577   0.604
  0.637   0.664   0.670   0.727   0.758   0.769   0.777   0.795
  0.817   0.819   0.834   0.850   0.855   0.888   0.895   0.957
  1.195   3.967
 --------------------------------------------------------------
 
          Ground-State Mulliken Net Atomic Charges

     Atom                 Charge (a.u.)
  ----------------------------------------
      1 Zr                    0.666860
      2 S                    -0.173769
      3 S                    -0.372488
      4 S                    -0.120603
  ----------------------------------------
  Sum of atomic charges =     0.000000

 -----------------------------------------------------------------
                    Cartesian Multipole Moments
 -----------------------------------------------------------------
    Charge (ESU x 10^10)
                 0.0000
    Dipole Moment (Debye)
         X       3.0500      Y       1.7632      Z       0.0000
       Tot       3.5230
    Quadrupole Moments (Debye-Ang)
        XX     -60.1227     XY       8.3400     YY     -80.0153
        XZ       0.0000     YZ       0.0000     ZZ     -59.5787
    Octopole Moments (Debye-Ang^2)
       XXX     -13.2077    XXY      11.5817    XYY     -16.2543
       YYY      20.0294    XXZ       0.0000    XYZ       0.0000
       YYZ       0.0000    XZZ      -2.4463    YZZ       0.3665
       ZZZ       0.0000
    Hexadecapole Moments (Debye-Ang^3)
      XXXX    -467.8137   XXXY     199.1839   XXYY    -257.0783
      XYYY     226.4115   YYYY   -1053.7415   XXXZ       0.0000
      XXYZ       0.0000   XYYZ       0.0000   YYYZ       0.0000
      XXZZ     -92.5380   XYZZ      61.5162   YYZZ    -185.1395
      XZZZ       0.0000   YZZZ       0.0000   ZZZZ     -88.3914
 -----------------------------------------------------------------
Archival summary:
1\1\hpc3742\OPT\ProcedureUnspecified\BasisUnspecified\r13(\liqiuy\FriJan1721:40:152020FriJan1721:40:152020\0\\#,OPT,ProcedureUnspecified,BasisUnspecified,\\28,1\Zr\S,1,2.2453\S,1,2.34622,2,112.33\S,3,2.15092,1,69.9587,2,-180,0\\\@

 Total job time:  809.64s(wall), 4316.39s(cpu) 
 Fri Jan 17 21:40:15 2020

        *************************************************************
        *                                                           *
        *  Thank you very much for using Q-Chem.  Have a nice day.  *
        *                                                           *
        *************************************************************


0 sent ACK to 0 
now end server 0 ... 
cleanup process ... done
