
Running Job 1 of 2 ZrOx.in
qchem ZrOx.in_29455.0 /tmp/5733243.priya/ZrOx.save/ 1
/usr/usc/qchem/4.4/bin/mpi/mpirun_qchem -machinefile /usr/usc/qchem/4.4/bin/mpi/machines -np 1 /usr/usc/qchem/4.4/exe/qcprog.exe ZrOx.in_29455.0 /tmp/5733243.priya/ZrOx.save/

Process 0 of 1 is on hpc3894.hpcc.usc.edu - thread support 0
initial socket setup ...start
initial socket setup ...done 
now start server 0 ... 
Check license passed

                  Welcome to Q-Chem
     A Quantum Leap Into The Future Of Chemistry


 Q-Chem 4.4, Q-Chem, Inc., Pleasanton, CA (2016)

 Y. Shao,  Z. Gan,  E. Epifanovsky,  A. T. B. Gilbert,  M. Wormit,  
 J. Kussmann,  A. W. Lange,  A. Behn,  J. Deng,  X. Feng,  D. Ghosh,  
 M. Goldey,  P. R. Horn,  L. D. Jacobson,  I. Kaliman,  F.Rob,  
 R. Z. Khaliullin,  T. Kus,  A. Landau,  J. Liu,  E. I. Proynov,  Y. M. Rhee,  
 R. M. Richard,  M. A. Rohrdanz,  R. P. Steele,  E. J. Sundstrom,  
 H. L. Woodcock III,  P. M. Zimmerman,  D. Zuev,  B. Albrecht,  E. Alguire,  
 B. Austin,  S. A. Baeppler,  G. J. O. Beran,  Y. A. Bernard,  E. Berquist,  
 K. Brandhorst,  K. B. Bravaya,  S. T. Brown,  D. Casanova,  C.-M. Chang,  
 Y. Chen,  S. H. Chien,  K. D. Closser,  M. P. Coons,  D. L. Crittenden,  
 S. Dasgupta,  M. Diedenhofen,  R. A. DiStasio Jr.,  H. Do,  A. D. Dutoi,  
 R. G. Edgar,  P.-T. Fang,  S. Fatehi,  Q. Feng,  L. Fusti-Molnar,  
 A. Ghysels,  A. Golubeva-Zadorozhnaya,  J. Gomes,  A. Gunina,  
 M. W. D. Hanson-Heine,  P. H. P. Harbach,  A. W. Hauser,  E. G. Hohenstein,  
 Z. C. Holden,  K. Hui,  T.-C. Jagau,  H. Ji,  B. Kaduk,  K. Khistyaev,  
 Jaehoon Kim,  Jihan Kim,  R. A. King,  P. Klunzinger,  D. Kosenkov,  
 T. Kowalczyk,  C. M. Krauter,  A. Kunitsa,  K. U. Lao,  A. Laurent,  
 K. V. Lawler,  D. Lefrancois,  S. Lehtola,  S. V. Levchenko,  C. Y. Lin,  
 Y.-S. Lin,  F. Liu,  E. Livshits,  R. C. Lochan,  A. Luenser,  P. Manohar,  
 S. F. Manzer,  S.-P. Mao,  Y. Mao,  N. Mardirossian,  A. V. Marenich,  
 L. A. Martinez-Martinez,  S. A. Maurer,  N. J. Mayhall,  J.-M. Mewes,  
 A. F. Morrison,  K. Nanda,  C. M. Oana,  R. Olivares-Amaya,  D. P. O'Neill,  
 J. A. Parkhill,  T. M. Perrine,  R. Peverati,  P. A. Pieniazek,  F. Plasser,  
 A. Prociuk,  D. R. Rehn,  E. Rosta,  N. J. Russ,  N. Sergueev,  
 S. M. Sharada,  S. Sharma,  D. W. Small,  A. Sodt,  T. Stauch,  T. Stein,  
 D. Stuck,  Y.-C. Su,  A. J. W. Thom,  T. Tsuchimochi,  L. Vogt,  O. Vydrov,  
 T. Wang,  M. A. Watson,  J. Wenzel,  A. White,  C. F. Williams,  
 V. Vanovschi,  S. Yeganeh,  S. R. Yost,  Z.-Q. You,  I. Y. Zhang,  X. Zhang,  
 Y. Zhao,  B. R. Brooks,  G. K. L. Chan,  D. M. Chipman,  C. J. Cramer,  
 W. A. Goddard III,  M. S. Gordon,  W. J. Hehre,  A. Klamt,  
 H. F. Schaefer III,  M. W. Schmidt,  C. D. Sherrill,  D. G. Truhlar,  
 A. Warshel,  X. Xu,  A. Aspuru-Guzik,  R. Baer,  A. T. Bell,  N. A. Besley,  
 J.-D. Chai,  A. Dreuw,  B. D. Dunietz,  T. R. Furlani,  S. R. Gwaltney,  
 C.-P. Hsu,  Y. Jung,  J. Kong,  D. S. Lambrecht,  W. Liang,  C. Ochsenfeld,  
 V. A. Rassolov,  L. V. Slipchenko,  J. E. Subotnik,  T. Van Voorhis,  
 J. M. Herbert,  A. I. Krylov,  P. M. W. Gill,  M. Head-Gordon

 Contributors to earlier versions of Q-Chem not listed above: 
 R. D. Adamson,  J. Baker,  E. F. C. Byrd,  A. K. Chakraborty,  C.-L. Cheng,  
 H. Dachsel,  R. J. Doerksen,  G. Hawkins,  A. Heyden,  S. Hirata,  
 G. Kedziora,  F. J. Keil,  C. Kelley,  P. P. Korambath,  W. Kurlancheek,  
 A. M. Lee,  M. S. Lee,  D. Liotard,  I. Lotan,  P. E. Maslen,  N. Nair,  
 D. Neuhauser,  R. Olson,  B. Peters,  J. Ritchie,  N. E. Schultz,  
 N. Shenvi,  A. C. Simmonett,  K. S. Thanthiriwatte,  Q. Wu,  W. Zhang

 Please cite Q-Chem as follows:
 Y. Shao et al., Mol. Phys. 113, 184-215 (2015)
 DOI: 10.1080/00268976.2014.952696

 Q-Chem 4.4.1 for Intel X86 Linux

 Parts of Q-Chem use Armadillo 5.200.1 (Boston Tea Smuggler).
 http://arma.sourceforge.net/

 Q-Chem begins on Fri Jan 17 21:25:59 2020  

Host: 
0

     Scratch files written to /tmp/5733243.priya/ZrOx.save//
 Jul2716 11668_ 21447  21445 5558   
 Parallel job on  1  processors
Processing $rem in /usr/usc/qchem/4.4/config/preferences.
 MEM_TOTAL  2000 

Checking the input file for inconsistencies... 	...done.

--------------------------------------------------------------
User input:
--------------------------------------------------------------
$comment
--------------------------------------------------------
A SINGLE POINT DFT CALCULATION WITH BASIS SET PROJECTION
--------------------------------------------------------
$end

$molecule
0 1
Zr -0.10927 -0.01652 -0.31802
S -2.59550 0.08342 -0.49064
S -1.92843 0.06772 1.41383
S 1.84978 -0.10398 1.13629
S 3.77242 -0.22068 0.73665
S 0.26818 -1.85603 -1.38495
S 0.42416 1.77118 -1.40244
$end

$rem
JOBTYPE   SP
METHOD   B3LYP
BASIS   GEN
ECP   GEN
MAX_SCF_CYCLES   200
SCF_CONVERGENCE 8
SCF_ALGORITHM  DIIS_GDM
SCF_PRINT 1
PDB_PRINT 2
THRESH 14
VARTHRESH 14
INCDFT FALSE
SYMMETRY False
Sym_ignore True
SCF_ALGORITHM GDM
XC_GRID 000128000302
DFT_D           EMPIRICAL_GRIMME3
DFT_D3_S6       1000
DFT_D3_RS6     1261
DFT_D3_S8      1703
DFT_D3_3BODY    FALSE
$end

$basis
O
6-31+G**
****
S
6-31+G**
****
Zr
LanL2DZ
****
$end

$ecp
Zr
LanL2DZ
****
$end

--------------------------------------------------------------
 ----------------------------------------------------------------
             Standard Nuclear Orientation (Angstroms)
    I     Atom           X                Y                Z
 ----------------------------------------------------------------
    1      Zr     -0.1092700000    -0.0165200000    -0.3180200000
    2      S      -2.5955000000     0.0834200000    -0.4906400000
    3      S      -1.9284300000     0.0677200000     1.4138300000
    4      S       1.8497800000    -0.1039800000     1.1362900000
    5      S       3.7724200000    -0.2206800000     0.7366500000
    6      S       0.2681800000    -1.8560300000    -1.3849500000
    7      S       0.4241600000     1.7711800000    -1.4024400000
 ----------------------------------------------------------------
 Nuclear Repulsion Energy =   806.4859864099 hartrees
 There are       54 alpha and       54 beta electrons

 Q-Chem warning in module /home/scratch/svnadmin/11668_zgan/qchem/forms1/BasisType.C, line 1419:

 Setting pure/cartesian flag to 2111 for general basis


 Requested basis set is non-standard
 There are 44 shells and 154 basis functions

 Total QAlloc Memory Limit   2000 MB
 Mega-Array Size        61 MB
 MEM_STATIC part        62 MB

                       Distance Matrix (Angstroms)
             Zr(  1)   S (  2)   S (  3)   S (  4)   S (  5)   S (  6)
   S (  2)  2.494218
   S (  3)  2.513114  2.017978
   S (  4)  2.441422  4.737355  3.792279
   S (  5)  4.027596  6.492236  5.748168  1.967200
   S (  6)  2.159770  3.572383  4.044636  3.453663  4.410811
   S (  7)  2.157866  3.577466  4.045718  3.463202  4.444554  3.630604

 
 A cutoff of  1.0D-14 yielded    900 shell pairs
 There are     11401 function pairs (     12625 Cartesian)
 
 -------------------------------------------------------
 OpenMP Integral Computing Module                       
 Release: version 1.0, May 2013, Q-Chem Inc. Pittsburgh 
 -------------------------------------------------------
 Integral Job Info:
 Integral job number is                      11
 Integral operator is                         1
 short-range coefficients                     0
 long-range coefficients              100000000
 Omega coefficients                           0
 if combine SR and LR in K                    0
 Integral screening is                        0
 Integral computing path is                   2
 max size of driver memory is            800000
 size of driver memory is                593474
 size of scratch memory is             15166112
 max col of scratch BK array               1296
 max len of scratch array in speh3          155
 max len of scratch index in speh4           18
 max int batch size is                      520
 min int batch size is                       52
 fixed nKL is                                52
 max L of basis functions is                  2
 order of int derivative is                   0
 number of shells is                         44
 number of basis is                         162
 number of cartesian basis is               162
 number of contracted shell pairs           900
 number of primitive shell pairs           4896
 maxK2 (contraction) of shell pair           36
 max number of K2 of shell pair               1
 max number of CS2 of shell pair            106
 max number of PS2 of shell pair            636
 mem total for path MDJ                   47274
 -------------------------------------------------------
 Requested basis set is non-standard
 Compound shells will be simplified
 There are 68 shells and 154 basis functions
 A cutoff of  1.0D-14 yielded   2163 shell pairs
 There are     11329 function pairs (     12553 Cartesian)
 Smallest overlap matrix eigenvalue = 9.57E-05

 Scale SEOQF with 1.000000e-01/1.000000e-01/1.000000e-01

 Standard Electronic Orientation quadrupole field applied
 Nucleus-field energy     =     0.0000000100 hartrees
 Guess MOs from core Hamiltonian diagonalization
 A restricted hybrid HF-DFT SCF calculation will be
 performed using Geometric Direct Minimization
 Exchange:     0.2000 Hartree-Fock + 0.0800 Slater + 0.7200 B88
 Correlation:  0.1900 VWN1RPA + 0.8100 LYP
 Using Euler-Maclaurin-Lebedev (128,302) quadrature formula
 Dispersion:   Grimme D3
 SCF converges when RMS gradient is below 1.0E-08
 Maximum number of minimization steps = 200
 using 12 threads for integral computing 
 -------------------------------------------------------
 OpenMP BLAS3 based DFT computing Module                
 Release: version 1.0, May 2013, Q-Chem Inc. Pittsburgh 
 -------------------------------------------------------
 
   ------------------- Entering Geometric Direct Minimization ------------------
   GDM:         diagonal hessian shift is      0.000000000000000E+000
   GDM::PreWSS: input subspace size is                  1
   GDM::PreWSS: working subspace size set to            1
   GDM::PrEWSS: # of linearly dependent vectors =            0
   GDM::PrEWSS: Max dev from orthonormality =   0.000000000000000E+000
   GDM::BFGS:   lowest Hinv e-value     1.00000000000000     
   GDM::BFGS:   highest Hinv e-value    1.00000000000000     
   GDM::      : max scaling in EWCs is          1.41421356237309     
   GDM::      : max rotation in step is       -0.103190996700450     
   GDM::        grad.step =   -2.04444430419908     
   ------- Leaving GDM -- hopefully with a step in the right direction! --------
 
 ---------------------------------------
  Cycle       Energy        RMS Gradient
 ---------------------------------------
    1   -2391.9508152801      1.40E+00  Gap = 0.00 eV  Descent step
 
   ------------------- Entering Geometric Direct Minimization ------------------
   GDM::trust : actual energy change is        -4.05826010512237     
   GDM::trust : predicted energy change was   -0.163350000000000     
   GDM::trust : updated trust radius is        0.330000000000000     
   GDM:         diagonal hessian shift is      0.000000000000000E+000
   GDM::PreWSS: input subspace size is                  2
   GDM::PreWSS: working subspace size set to            2
   GDM::PrEWSS: # of linearly dependent vectors =            0
   GDM::PrEWSS: Max dev from orthonormality =   4.909180700840565E-014
   GDM::BFGS:   lowest Hinv e-value    0.348576127482130     
   GDM::BFGS:   highest Hinv e-value    6.17803342851501     
   GDM::      : max scaling in EWCs is          1.41421356237309     
   GDM::      : max rotation in step is       -8.892807369737990E-002
   GDM::        grad.step =   -2.18566499520198     
   ------- Leaving GDM -- hopefully with a step in the right direction! --------
 
    2   -2396.0090753852      1.28E+00  Gap = 0.00 eV  Descent step
 
   ------------------- Entering Geometric Direct Minimization ------------------
   GDM::trust : actual energy change is        -4.27508193632048     
   GDM::trust : predicted energy change was   -0.120598079444834     
   GDM::trust : updated trust radius is        0.330000000000000     
   GDM::search:  On step            1 .  The current bracket is:
       left   : x =  0.0000E+00, e =     -2396.0090753852, g = -0.5647E+01
       current: x =  0.3871E+00, e =     -2400.2841573215, g = -0.5341E+01
       right  : x =  0.1000E+04, e =      1000.0000000000, g =  0.1000E+04
       next   : x =  0.3871E+01
   GDM::      : max rotation in step is       -0.889280736973799     
   ------- Leaving GDM -- hopefully with a step in the right direction! --------
 
    3   -2400.2841573215      4.60E+00  Gap = 0.00 eV  Line search: understep
 
   ------------------- Entering Geometric Direct Minimization ------------------
   GDM::trust : actual energy change is        -11.3977403967901     
   GDM::trust : predicted energy change was   -0.120598079444834     
   GDM::trust : updated trust radius is        0.330000000000000     
   GDM:         diagonal hessian shift is      0.000000000000000E+000
   GDM::PreWSS: input subspace size is                  3
   GDM::PreWSS: working subspace size set to            3
   GDM::PrEWSS: # of linearly dependent vectors =            0
   GDM::PrEWSS: Max dev from orthonormality =   1.946706684741173E-014
   GDM::BFGS:   lowest Hinv e-value    0.159276420264809     
   GDM::BFGS:   highest Hinv e-value    2.72523902932950     
   GDM::      : max scaling in EWCs is          2.82842712474619     
   GDM::      : max rotation in step is        0.264429181820782     
   GDM::        grad.step =   -2.37691037878904     
   ------- Leaving GDM -- hopefully with a step in the right direction! --------
 
    4   -2407.4068157820      2.14E+00  Gap = 0.00 eV  Descent step
 
   ------------------- Entering Geometric Direct Minimization ------------------
   GDM::trust : actual energy change is        -4.60489392134241     
   GDM::trust : predicted energy change was   -0.350653451948982     
   GDM::trust : updated trust radius is        0.330000000000000     
   GDM:         diagonal hessian shift is      0.000000000000000E+000
   GDM::PreWSS: input subspace size is                  4
   GDM::PreWSS: working subspace size set to            4
   GDM::PrEWSS: # of linearly dependent vectors =            0
   GDM::PrEWSS: Max dev from orthonormality =   8.520267824607686E-014
   GDM::BFGS:   lowest Hinv e-value    0.369745314393051     
   GDM::BFGS:   highest Hinv e-value    4.29067948781443     
   GDM::      : max scaling in EWCs is          2.82842712474619     
   GDM::      : max rotation in step is        0.182807270711591     
   GDM::        grad.step =   -1.86036133454369     
   ------- Leaving GDM -- hopefully with a step in the right direction! --------
 
    5   -2412.0117097033      1.10E+00  Gap = 0.00 eV  Descent step
 
   ------------------- Entering Geometric Direct Minimization ------------------
   GDM::trust : actual energy change is        -3.53826422543034     
   GDM::trust : predicted energy change was   -0.169533644497983     
   GDM::trust : updated trust radius is        0.330000000000000     
   GDM:         diagonal hessian shift is      0.000000000000000E+000
   GDM::PreWSS: input subspace size is                  5
   GDM::PreWSS: working subspace size set to            5
   GDM::PrEWSS: # of linearly dependent vectors =            0
   GDM::PrEWSS: Max dev from orthonormality =   9.098277686803158E-014
   GDM::BFGS:   lowest Hinv e-value    0.393356781492811     
   GDM::BFGS:   highest Hinv e-value    4.16046711795042     
   GDM::      : max scaling in EWCs is          2.82842712474619     
   GDM::      : max rotation in step is       -0.173217524752316     
   GDM::        grad.step =   -1.43244173634617     
   ------- Leaving GDM -- hopefully with a step in the right direction! --------
 
    6   -2415.5499739287      8.39E-01  Gap = 0.00 eV  Descent step
 
   ------------------- Entering Geometric Direct Minimization ------------------
   GDM::trust : actual energy change is        -2.78448485964327     
   GDM::trust : predicted energy change was   -0.151785650960141     
   GDM::trust : updated trust radius is        0.330000000000000     
   GDM:         diagonal hessian shift is      0.000000000000000E+000
   GDM::PreWSS: input subspace size is                  6
   GDM::PreWSS: working subspace size set to            6
   GDM::PrEWSS: # of linearly dependent vectors =            0
   GDM::PrEWSS: Max dev from orthonormality =   2.502754947730779E-013
   GDM::BFGS:   lowest Hinv e-value    0.275536792919868     
   GDM::BFGS:   highest Hinv e-value    4.85179722774568     
   GDM::      : max scaling in EWCs is          2.82842712474619     
   GDM::      : max rotation in step is        0.247575805016025     
   GDM::        grad.step =   -1.42643826451779     
   ------- Leaving GDM -- hopefully with a step in the right direction! --------
 
    7   -2418.3344587884      1.37E+00  Gap = 0.00 eV  Descent step
 
   ------------------- Entering Geometric Direct Minimization ------------------
   GDM::trust : actual energy change is        -2.79484116286631     
   GDM::trust : predicted energy change was   -0.136357090145044     
   GDM::trust : updated trust radius is        0.330000000000000     
   GDM:         diagonal hessian shift is      0.000000000000000E+000
   GDM::PreWSS: input subspace size is                  7
   GDM::PreWSS: working subspace size set to            7
   GDM::PrEWSS: # of linearly dependent vectors =            0
   GDM::PrEWSS: Max dev from orthonormality =   3.467851006355716E-013
   GDM::BFGS:   lowest Hinv e-value    0.180052838403683     
   GDM::BFGS:   highest Hinv e-value    5.03044887589331     
   GDM::      : max scaling in EWCs is          2.82842712474619     
   GDM::      : max rotation in step is       -0.228731746450078     
   GDM::        grad.step =   -1.41541280021463     
   ------- Leaving GDM -- hopefully with a step in the right direction! --------
 
    8   -2421.1292999513      1.05E+00  Gap = 0.00 eV  Descent step
 
   ------------------- Entering Geometric Direct Minimization ------------------
   GDM::trust : actual energy change is        -2.68003795727964     
   GDM::trust : predicted energy change was   -0.143350810564334     
   GDM::trust : updated trust radius is        0.330000000000000     
   GDM:         diagonal hessian shift is      0.000000000000000E+000
   GDM::PreWSS: input subspace size is                  8
   GDM::PreWSS: working subspace size set to            8
   GDM::PrEWSS: # of linearly dependent vectors =            0
   GDM::PrEWSS: Max dev from orthonormality =   3.846679919039531E-013
   GDM::BFGS:   lowest Hinv e-value    0.189475701832926     
   GDM::BFGS:   highest Hinv e-value    5.31478807650024     
   GDM::      : max scaling in EWCs is          2.82842712474619     
   GDM::      : max rotation in step is       -0.187418962746048     
   GDM::        grad.step =   -1.11080584893813     
   ------- Leaving GDM -- hopefully with a step in the right direction! --------
 
    9   -2423.8093379085      6.76E-01  Gap = 0.00 eV  Descent step
 
   ------------------- Entering Geometric Direct Minimization ------------------
   GDM::trust : actual energy change is        -2.09291240356288     
   GDM::trust : predicted energy change was   -0.144807366783638     
   GDM::trust : updated trust radius is        0.330000000000000     
   GDM:         diagonal hessian shift is      0.000000000000000E+000
   GDM::PreWSS: input subspace size is                  9
   GDM::PreWSS: working subspace size set to            9
   GDM::PrEWSS: # of linearly dependent vectors =            0
   GDM::PrEWSS: Max dev from orthonormality =   1.022876228162772E-012
   GDM::BFGS:   lowest Hinv e-value    0.179160540143800     
   GDM::BFGS:   highest Hinv e-value    5.72760339963339     
   GDM::      : max scaling in EWCs is          2.82842712474619     
   GDM::      : max rotation in step is       -0.245513547409309     
   GDM::        grad.step =  -0.933304220857357     
   ------- Leaving GDM -- hopefully with a step in the right direction! --------
 
   10   -2425.9022503121      7.44E-01  Gap = 0.00 eV  Descent step
 
   ------------------- Entering Geometric Direct Minimization ------------------
   GDM::trust : actual energy change is        -1.73753347548882     
   GDM::trust : predicted energy change was   -0.144187631358029     
   GDM::trust : updated trust radius is        0.330000000000000     
   GDM:         diagonal hessian shift is      0.000000000000000E+000
   GDM::PreWSS: input subspace size is                 10
   GDM::PreWSS: working subspace size set to           10
   GDM::PrEWSS: # of linearly dependent vectors =            0
   GDM::PrEWSS: Max dev from orthonormality =   6.468506286161357E-013
   GDM::BFGS:   lowest Hinv e-value    0.177076424590841     
   GDM::BFGS:   highest Hinv e-value    6.12878181900451     
   GDM::      : max scaling in EWCs is          2.82842712474619     
   GDM::      : max rotation in step is        0.146827867571858     
   GDM::        grad.step =  -0.809391235751498     
   ------- Leaving GDM -- hopefully with a step in the right direction! --------
 
   11   -2427.6397837876      6.70E-01  Gap = 0.00 eV  Descent step
 
   ------------------- Entering Geometric Direct Minimization ------------------
   GDM::trust : actual energy change is        -1.56357748595383     
   GDM::trust : predicted energy change was   -0.139854874336373     
   GDM::trust : updated trust radius is        0.330000000000000     
   GDM:         diagonal hessian shift is      0.000000000000000E+000
   GDM::PreWSS: input subspace size is                 11
   GDM::PreWSS: working subspace size set to           11
   GDM::PrEWSS: # of linearly dependent vectors =            0
   GDM::PrEWSS: Max dev from orthonormality =   1.226085205585647E-012
   GDM::BFGS:   lowest Hinv e-value    0.163505770811430     
   GDM::BFGS:   highest Hinv e-value    6.68932845763956     
   GDM::      : max scaling in EWCs is          2.82842712474619     
   GDM::      : max rotation in step is        0.434489515148156     
   GDM::        grad.step =  -0.839577923844725     
   ------- Leaving GDM -- hopefully with a step in the right direction! --------
 
   12   -2429.2033612735      1.18E+00  Gap = 0.00 eV  Descent step
 
   ------------------- Entering Geometric Direct Minimization ------------------
   GDM::trust : actual energy change is        -1.50154007234642     
   GDM::trust : predicted energy change was   -0.135978348760074     
   GDM::trust : updated trust radius is        0.330000000000000     
   GDM:         diagonal hessian shift is      0.000000000000000E+000
   GDM::PreWSS: input subspace size is                 12
   GDM::PreWSS: working subspace size set to           12
   GDM::PrEWSS: # of linearly dependent vectors =            0
   GDM::PrEWSS: Max dev from orthonormality =   8.956221181355417E-013
   GDM::BFGS:   lowest Hinv e-value    0.178182956972596     
   GDM::BFGS:   highest Hinv e-value    7.65671397855166     
   GDM::      : max scaling in EWCs is          2.82842712474619     
   GDM::      : max rotation in step is        0.418392563187445     
   GDM::        grad.step =  -0.697098363691092     
   ------- Leaving GDM -- hopefully with a step in the right direction! --------
 
   13   -2430.7049013459      9.47E-01  Gap = 0.00 eV  Descent step
 
   ------------------- Entering Geometric Direct Minimization ------------------
   GDM::trust : actual energy change is        -1.30292090502189     
   GDM::trust : predicted energy change was   -0.146311473980443     
   GDM::trust : updated trust radius is        0.330000000000000     
   GDM:         diagonal hessian shift is      0.000000000000000E+000
   GDM::PreWSS: input subspace size is                 13
   GDM::PreWSS: working subspace size set to           13
   GDM::PrEWSS: # of linearly dependent vectors =            0
   GDM::PrEWSS: Max dev from orthonormality =   4.481658100186081E-013
   GDM::BFGS:   lowest Hinv e-value    0.192424466430306     
   GDM::BFGS:   highest Hinv e-value    8.34633371497856     
   GDM::      : max scaling in EWCs is          2.82842712474619     
   GDM::      : max rotation in step is       -0.266814566716406     
   GDM::        grad.step =  -0.508335993359132     
   ------- Leaving GDM -- hopefully with a step in the right direction! --------
 
   14   -2432.0078222509      4.40E-01  Gap = 226.81 eV  Descent step
 
   ------------------- Entering Geometric Direct Minimization ------------------
   GDM::trust : actual energy change is       -0.936761073113303     
   GDM::trust : predicted energy change was   -0.145031160306087     
   GDM::trust : updated trust radius is        0.330000000000000     
   GDM:         diagonal hessian shift is      0.000000000000000E+000
   GDM::PreWSS: input subspace size is                 14
   GDM::PreWSS: working subspace size set to           14
   GDM::PrEWSS: # of linearly dependent vectors =            0
   GDM::PrEWSS: Max dev from orthonormality =   7.468817231348623E-013
   GDM::BFGS:   lowest Hinv e-value    0.195506376461236     
   GDM::BFGS:   highest Hinv e-value    8.65255657314862     
   GDM::      : max scaling in EWCs is          2.82842712474619     
   GDM::      : max rotation in step is       -0.244149583469918     
   GDM::        grad.step =  -0.441774448200894     
   ------- Leaving GDM -- hopefully with a step in the right direction! --------
 
   15   -2432.9445833240      3.68E-01  Gap = 226.81 eV  Descent step
 
   ------------------- Entering Geometric Direct Minimization ------------------
   GDM::trust : actual energy change is       -0.799782121237058     
   GDM::trust : predicted energy change was   -0.131114737271432     
   GDM::trust : updated trust radius is        0.330000000000000     
   GDM:         diagonal hessian shift is      0.000000000000000E+000
   GDM::PreWSS: input subspace size is                 15
   GDM::PreWSS: working subspace size set to           15
   GDM::PrEWSS: # of linearly dependent vectors =            0
   GDM::PrEWSS: Max dev from orthonormality =   1.232000612638728E-012
   GDM::BFGS:   lowest Hinv e-value    0.187372489792233     
   GDM::BFGS:   highest Hinv e-value    8.95883200585706     
   GDM::      : max scaling in EWCs is          2.82842712474619     
   GDM::      : max rotation in step is        0.338517469433042     
   GDM::        grad.step =  -0.444962988890828     
   ------- Leaving GDM -- hopefully with a step in the right direction! --------
 
   16   -2433.7443654453      5.83E-01  Gap = 226.81 eV  Descent step
 
   ------------------- Entering Geometric Direct Minimization ------------------
   GDM::trust : actual energy change is       -0.688664181904187     
   GDM::trust : predicted energy change was   -0.143774705658116     
   GDM::trust : updated trust radius is        0.330000000000000     
   GDM:         diagonal hessian shift is      0.000000000000000E+000
   GDM::PreWSS: input subspace size is                 16
   GDM::PreWSS: working subspace size set to           16
   GDM::PrEWSS: # of linearly dependent vectors =            0
   GDM::PrEWSS: Max dev from orthonormality =   8.165343401422831E-013
   GDM::BFGS:   lowest Hinv e-value    0.183142112863520     
   GDM::BFGS:   highest Hinv e-value    9.10177755375770     
   GDM::      : max scaling in EWCs is          2.82842712474619     
   GDM::      : max rotation in step is        0.281618820598468     
   GDM::        grad.step =  -0.351040867471726     
   ------- Leaving GDM -- hopefully with a step in the right direction! --------
 
   17   -2434.4330296272      3.37E-01  Gap = 226.81 eV  Descent step
 
   ------------------- Entering Geometric Direct Minimization ------------------
   GDM::trust : actual energy change is       -0.474594339694704     
   GDM::trust : predicted energy change was   -0.189890197199805     
   GDM::trust : updated trust radius is        0.330000000000000     
   GDM:         diagonal hessian shift is      0.000000000000000E+000
   GDM::PreWSS: input subspace size is                 17
   GDM::PreWSS: working subspace size set to           17
   GDM::PrEWSS: # of linearly dependent vectors =            0
   GDM::PrEWSS: Max dev from orthonormality =   1.384732606357630E-012
   GDM::BFGS:   lowest Hinv e-value    0.136364245432588     
   GDM::BFGS:   highest Hinv e-value    9.15002849193135     
   GDM::      : max scaling in EWCs is          2.82842712474619     
   GDM::      : max rotation in step is       -0.362025632760751     
   GDM::        grad.step =  -0.324149781148015     
   ------- Leaving GDM -- hopefully with a step in the right direction! --------
 
   18   -2434.9076239669      4.80E-01  Gap = 226.81 eV  Descent step
 
   ------------------- Entering Geometric Direct Minimization ------------------
   GDM::trust : actual energy change is       -0.128040061988031     
   GDM::trust : predicted energy change was   -0.312186748146400     
   GDM::trust : updated trust radius is        0.330000000000000     
   GDM:         diagonal hessian shift is      0.000000000000000E+000
   GDM::PreWSS: input subspace size is                 18
   GDM::PreWSS: working subspace size set to           18
   GDM::PrEWSS: # of linearly dependent vectors =            0
   GDM::PrEWSS: Max dev from orthonormality =   9.006259280019968E-013
   GDM::BFGS:   lowest Hinv e-value    7.558327877907972E-002
   GDM::BFGS:   highest Hinv e-value    9.47635992760724     
   GDM::      : max scaling in EWCs is          2.82842712474619     
   GDM::      : max rotation in step is        0.526999654328646     
   GDM::        grad.step =  -0.593939253033348     
   ------- Leaving GDM -- hopefully with a step in the right direction! --------
 
   19   -2435.0356640288      1.02E+00  Gap = 226.81 eV  Descent step
 
   ------------------- Entering Geometric Direct Minimization ------------------
   GDM::trust : actual energy change is        0.154014392869612     
   GDM::trust : predicted energy change was   -0.768423791332305     
   GDM::trust : updated trust radius is        0.108900000000000     
   GDM::search:  On step            1 .  The current bracket is:
       left   : x =  0.0000E+00, e =     -2435.0356640288, g = -0.6980E+00
       current: x =  0.8509E+00, e =     -2434.8816496360, g =  0.7254E+00
       right  : x =  0.1000E+04, e =      1000.0000000000, g =  0.1000E+04
       next   : x =  0.3379E+00
   GDM::      : max rotation in step is        0.209241430104211     
   ------- Leaving GDM -- hopefully with a step in the right direction! --------
 
   20   -2434.8816496360      9.63E-01  Gap = 226.81 eV  Line search: overstep
 
   ------------------- Entering Geometric Direct Minimization ------------------
   GDM::trust : actual energy change is       -0.261572268980217     
   GDM::trust : predicted energy change was   -0.768423791332305     
   GDM::trust : updated trust radius is        0.108900000000000     
   GDM:         diagonal hessian shift is      0.000000000000000E+000
   GDM::PreWSS: input subspace size is                 19
   GDM::PreWSS: working subspace size set to           18
   GDM::PrEWSS: # of linearly dependent vectors =            0
   GDM::PrEWSS: Max dev from orthonormality =   1.332073340520878E-012
   GDM::BFGS:   lowest Hinv e-value    0.180937331182219     
   GDM::BFGS:   highest Hinv e-value    9.37291922418454     
   GDM::      : max scaling in EWCs is          2.82842712474619     
   GDM::      : max rotation in step is       -0.103184421195485     
   GDM::        grad.step =  -6.196769180824045E-002
   ------- Leaving GDM -- hopefully with a step in the right direction! --------
 
   21   -2435.2972362978      2.04E-01  Gap = 226.81 eV  Descent step
 
   ------------------- Entering Geometric Direct Minimization ------------------
   GDM::trust : actual energy change is       -0.106415787042806     
   GDM::trust : predicted energy change was   -1.630041791548577E-002
   GDM::trust : updated trust radius is        0.330000000000000     
   GDM:         diagonal hessian shift is      0.000000000000000E+000
   GDM::PreWSS: input subspace size is                 19
   GDM::PreWSS: working subspace size set to           18
   GDM::PrEWSS: # of linearly dependent vectors =            0
   GDM::PrEWSS: Max dev from orthonormality =   7.607612456661528E-013
   GDM::BFGS:   lowest Hinv e-value    0.167423633508290     
   GDM::BFGS:   highest Hinv e-value    9.38659724573094     
   GDM::      : max scaling in EWCs is          2.82842712474619     
   GDM::      : max rotation in step is       -0.320169546207182     
   GDM::        grad.step =  -0.152477958717035     
   ------- Leaving GDM -- hopefully with a step in the right direction! --------
 
   22   -2435.4036520849      1.58E-01  Gap = 226.81 eV  Descent step
 
   ------------------- Entering Geometric Direct Minimization ------------------
   GDM::trust : actual energy change is       -5.107595549407051E-002
   GDM::trust : predicted energy change was   -0.149161281714794     
   GDM::trust : updated trust radius is        0.330000000000000     
   GDM:         diagonal hessian shift is      0.000000000000000E+000
   GDM::PreWSS: input subspace size is                 19
   GDM::PreWSS: working subspace size set to           18
   GDM::PrEWSS: # of linearly dependent vectors =            0
   GDM::PrEWSS: Max dev from orthonormality =   4.668140873853588E-013
   GDM::BFGS:   lowest Hinv e-value    8.351217789065264E-002
   GDM::BFGS:   highest Hinv e-value    9.36553161443029     
   GDM::      : max scaling in EWCs is          2.82842712474619     
   GDM::      : max rotation in step is        0.428126266603940     
   GDM::        grad.step =  -0.368089670064872     
   ------- Leaving GDM -- hopefully with a step in the right direction! --------
 
   23   -2435.4547280404      5.12E-01  Gap = 226.81 eV  Descent step
 
   ------------------- Entering Geometric Direct Minimization ------------------
   GDM::trust : actual energy change is        0.183117190006215     
   GDM::trust : predicted energy change was   -0.557586863602050     
   GDM::trust : updated trust radius is        0.108900000000000     
   GDM::search:  On step            1 .  The current bracket is:
       left   : x =  0.0000E+00, e =     -2435.4547280404, g = -0.4465E+00
       current: x =  0.8244E+00, e =     -2435.2716108504, g =  0.4773E+00
       right  : x =  0.1000E+04, e =      1000.0000000000, g =  0.1000E+04
       next   : x =  0.2753E+00
   GDM::      : max rotation in step is        0.142948925018845     
   ------- Leaving GDM -- hopefully with a step in the right direction! --------
 
   24   -2435.2716108504      2.91E-01  Gap = 226.81 eV  Line search: overstep
 
   ------------------- Entering Geometric Direct Minimization ------------------
   GDM::trust : actual energy change is       -0.134619735114939     
   GDM::trust : predicted energy change was   -0.557586863602050     
   GDM::trust : updated trust radius is        0.108900000000000     
   GDM:         diagonal hessian shift is      0.000000000000000E+000
   GDM::PreWSS: input subspace size is                 19
   GDM::PreWSS: working subspace size set to           18
   GDM::PrEWSS: # of linearly dependent vectors =            0
   GDM::PrEWSS: Max dev from orthonormality =   1.003599980897718E-012
   GDM::BFGS:   lowest Hinv e-value    9.777599357753773E-002
   GDM::BFGS:   highest Hinv e-value    9.46194582475914     
   GDM::      : max scaling in EWCs is          2.82842712474619     
   GDM::      : max rotation in step is        0.113747879052492     
   GDM::        grad.step =  -2.137236814228095E-002
   ------- Leaving GDM -- hopefully with a step in the right direction! --------
 
   25   -2435.5893477755      7.25E-02  Gap = 226.81 eV  Descent step
 
   ------------------- Entering Geometric Direct Minimization ------------------
   GDM::trust : actual energy change is       -2.378480115157799E-002
   GDM::trust : predicted energy change was   -2.606700340349580E-002
   GDM::trust : updated trust radius is        0.330000000000000     
   GDM:         diagonal hessian shift is      0.000000000000000E+000
   GDM::PreWSS: input subspace size is                 19
   GDM::PreWSS: working subspace size set to           18
   GDM::PrEWSS: # of linearly dependent vectors =            0
   GDM::PrEWSS: Max dev from orthonormality =   1.125800841439428E-012
   GDM::BFGS:   lowest Hinv e-value    8.819362668597118E-002
   GDM::BFGS:   highest Hinv e-value    8.98310199952264     
   GDM::      : max scaling in EWCs is          2.82842712474619     
   GDM::      : max rotation in step is        0.425344922403725     
   GDM::        grad.step =  -5.326443346286500E-002
   ------- Leaving GDM -- hopefully with a step in the right direction! --------
 
   26   -2435.6131325766      1.72E-01  Gap = 226.81 eV  Normal BFGS step
 
   ------------------- Entering Geometric Direct Minimization ------------------
   GDM::trust : actual energy change is        2.564013170740509E-003
   GDM::trust : predicted energy change was   -7.989665019429748E-002
   GDM::trust : updated trust radius is        0.108900000000000     
   GDM::search:  On step            1 .  The current bracket is:
       left   : x =  0.0000E+00, e =     -2435.6131325766, g = -0.6948E-01
       current: x =  0.7666E+00, e =     -2435.6105685635, g =  0.1544E+00
       right  : x =  0.1000E+04, e =      1000.0000000000, g =  0.1000E+04
       next   : x =  0.3657E+00
   GDM::      : max rotation in step is        0.202905128874777     
   ------- Leaving GDM -- hopefully with a step in the right direction! --------
 
   27   -2435.6105685635      4.28E-01  Gap = 226.81 eV  Line search: overstep
 
   ------------------- Entering Geometric Direct Minimization ------------------
   GDM::trust : actual energy change is       -4.144761627867410E-002
   GDM::trust : predicted energy change was   -7.989665019429748E-002
   GDM::trust : updated trust radius is        0.108900000000000     
   GDM:         diagonal hessian shift is      0.000000000000000E+000
   GDM::PreWSS: input subspace size is                 19
   GDM::PreWSS: working subspace size set to           18
   GDM::PrEWSS: # of linearly dependent vectors =            0
   GDM::PrEWSS: Max dev from orthonormality =   1.774760893802352E-013
   GDM::BFGS:   lowest Hinv e-value    8.220697538705775E-002
   GDM::BFGS:   highest Hinv e-value    6.90865371602811     
   GDM::      : max scaling in EWCs is          2.82842712474619     
   GDM::      : max rotation in step is        0.107654610958700     
   GDM::        grad.step =  -2.004105670799335E-002
   ------- Leaving GDM -- hopefully with a step in the right direction! --------
 
   28   -2435.6545801929      6.89E-02  Gap = 226.81 eV  Descent step
 
   ------------------- Entering Geometric Direct Minimization ------------------
   GDM::trust : actual energy change is       -1.232439209115910E-002
   GDM::trust : predicted energy change was   -2.515893884094177E-002
   GDM::trust : updated trust radius is        0.330000000000000     
   GDM:         diagonal hessian shift is      0.000000000000000E+000
   GDM::PreWSS: input subspace size is                 19
   GDM::PreWSS: working subspace size set to           18
   GDM::PrEWSS: # of linearly dependent vectors =            0
   GDM::PrEWSS: Max dev from orthonormality =   9.040615478461689E-013
   GDM::BFGS:   lowest Hinv e-value    8.180241075085598E-002
   GDM::BFGS:   highest Hinv e-value    6.74317426375271     
   GDM::      : max scaling in EWCs is          2.82842712474619     
   GDM::      : max rotation in step is       -0.468027845582448     
   GDM::        grad.step =  -3.176214731304389E-002
   ------- Leaving GDM -- hopefully with a step in the right direction! --------
 
   29   -2435.6669045850      1.96E-01  Gap = 226.81 eV  Normal BFGS step
 
   ------------------- Entering Geometric Direct Minimization ------------------
   GDM::trust : actual energy change is        0.136616418694302     
   GDM::trust : predicted energy change was   -4.764322096956584E-002
   GDM::trust : updated trust radius is        0.108900000000000     
   GDM::search:  On step            1 .  The current bracket is:
       left   : x =  0.0000E+00, e =     -2435.6669045850, g = -0.4534E-01
       current: x =  0.7005E+00, e =     -2435.5302881663, g =  0.2526E+00
       right  : x =  0.1000E+04, e =      1000.0000000000, g =  0.1000E+04
       next   : x =  0.7005E-01
   GDM::      : max rotation in step is       -4.680278455824479E-002
   ------- Leaving GDM -- hopefully with a step in the right direction! --------
 
   30   -2435.5302881663      3.82E-01  Gap = 226.81 eV  Line search: overstep
 
   ------------------- Entering Geometric Direct Minimization ------------------
   GDM::trust : actual energy change is       -4.920201968161564E-003
   GDM::trust : predicted energy change was   -4.764322096956584E-002
   GDM::trust : updated trust radius is        0.108900000000000     
   GDM:         diagonal hessian shift is      0.000000000000000E+000
   GDM::PreWSS: input subspace size is                 19
   GDM::PreWSS: working subspace size set to           18
   GDM::PrEWSS: # of linearly dependent vectors =            0
   GDM::PrEWSS: Max dev from orthonormality =   5.829850491245736E-013
   GDM::BFGS:   lowest Hinv e-value    9.047171216367395E-002
   GDM::BFGS:   highest Hinv e-value    5.59310926238376     
   GDM::      : max scaling in EWCs is          2.82842712474619     
   GDM::      : max rotation in step is       -0.179917163980707     
   GDM::        grad.step =  -3.312714860321532E-002
   ------- Leaving GDM -- hopefully with a step in the right direction! --------
 
   31   -2435.6718247870      1.78E-01  Gap = 226.81 eV  Descent step
 
   ------------------- Entering Geometric Direct Minimization ------------------
   GDM::trust : actual energy change is        1.008459679451335E-002
   GDM::trust : predicted energy change was   -6.236718268154084E-002
   GDM::trust : updated trust radius is        0.108900000000000     
   GDM::search:  On step            1 .  The current bracket is:
       left   : x =  0.0000E+00, e =     -2435.6718247870, g = -0.1228E+00
       current: x =  0.2697E+00, e =     -2435.6617401902, g =  0.1566E+00
       right  : x =  0.1000E+04, e =      1000.0000000000, g =  0.1000E+04
       next   : x =  0.1034E+00
   GDM::      : max rotation in step is       -6.896438193597267E-002
   ------- Leaving GDM -- hopefully with a step in the right direction! --------
 
   32   -2435.6617401902      1.60E-01  Gap = 226.81 eV  Line search: overstep
 
   ------------------- Entering Geometric Direct Minimization ------------------
   GDM::trust : actual energy change is       -1.416766357806409E-002
   GDM::trust : predicted energy change was   -6.236718268154084E-002
   GDM::trust : updated trust radius is        0.108900000000000     
   GDM:         diagonal hessian shift is      0.000000000000000E+000
   GDM::PreWSS: input subspace size is                 19
   GDM::PreWSS: working subspace size set to           18
   GDM::PrEWSS: # of linearly dependent vectors =            0
   GDM::PrEWSS: Max dev from orthonormality =   4.415981469385599E-013
   GDM::BFGS:   lowest Hinv e-value    0.128461912704706     
   GDM::BFGS:   highest Hinv e-value    5.21669438983727     
   GDM::      : max scaling in EWCs is          2.82842712474619     
   GDM::      : max rotation in step is        0.197813332995392     
   GDM::        grad.step =  -1.283622135162050E-002
   ------- Leaving GDM -- hopefully with a step in the right direction! --------
 
   33   -2435.6859924505      7.57E-02  Gap = 226.81 eV  Descent step
 
   ------------------- Entering Geometric Direct Minimization ------------------
   GDM::trust : actual energy change is       -8.518075630945532E-003
   GDM::trust : predicted energy change was   -2.006747174015909E-002
   GDM::trust : updated trust radius is        0.330000000000000     
   GDM:         diagonal hessian shift is      0.000000000000000E+000
   GDM::PreWSS: input subspace size is                 19
   GDM::PreWSS: working subspace size set to           18
   GDM::PrEWSS: # of linearly dependent vectors =            0
   GDM::PrEWSS: Max dev from orthonormality =   2.762859385718741E-013
   GDM::BFGS:   lowest Hinv e-value    0.104487069362627     
   GDM::BFGS:   highest Hinv e-value    5.47283603611553     
   GDM::      : max scaling in EWCs is          2.82842712474619     
   GDM::      : max rotation in step is        0.118489756999500     
   GDM::        grad.step =  -1.119628435058401E-002
   ------- Leaving GDM -- hopefully with a step in the right direction! --------
 
   34   -2435.6945105262      1.23E-01  Gap = 226.81 eV  Normal BFGS step
 
   ------------------- Entering Geometric Direct Minimization ------------------
   GDM::trust : actual energy change is       -8.218878512252559E-003
   GDM::trust : predicted energy change was   -1.679442652587602E-002
   GDM::trust : updated trust radius is        0.330000000000000     
   GDM:         diagonal hessian shift is      0.000000000000000E+000
   GDM::PreWSS: input subspace size is                 19
   GDM::PreWSS: working subspace size set to           18
   GDM::PrEWSS: # of linearly dependent vectors =            0
   GDM::PrEWSS: Max dev from orthonormality =   5.234146449595301E-013
   GDM::BFGS:   lowest Hinv e-value    0.127426413236657     
   GDM::BFGS:   highest Hinv e-value    3.70706748620648     
   GDM::      : max scaling in EWCs is          2.82842712474619     
   GDM::      : max rotation in step is       -8.675219709759154E-002
   GDM::        grad.step =  -1.049689848829853E-002
   ------- Leaving GDM -- hopefully with a step in the right direction! --------
 
   35   -2435.7027294047      1.06E-01  Gap = 226.81 eV  Normal BFGS step
 
   ------------------- Entering Geometric Direct Minimization ------------------
   GDM::trust : actual energy change is       -1.512150312464655E-003
   GDM::trust : predicted energy change was   -1.574534773244779E-002
   GDM::trust : updated trust radius is        0.330000000000000     
   GDM:         diagonal hessian shift is      0.000000000000000E+000
   GDM::PreWSS: input subspace size is                 19
   GDM::PreWSS: working subspace size set to           18
   GDM::PrEWSS: # of linearly dependent vectors =            0
   GDM::PrEWSS: Max dev from orthonormality =   3.247471735967622E-013
   GDM::BFGS:   lowest Hinv e-value    0.128556127931959     
   GDM::BFGS:   highest Hinv e-value    2.76516257989022     
   GDM::      : max scaling in EWCs is          2.82842712474619     
   GDM::      : max rotation in step is       -2.360853877579249E-002
   GDM::        grad.step =  -6.059807275821789E-003
   ------- Leaving GDM -- hopefully with a step in the right direction! --------
 
   36   -2435.7042415550      4.51E-02  Gap = 226.81 eV  Normal BFGS step
 
   ------------------- Entering Geometric Direct Minimization ------------------
   GDM::trust : actual energy change is       -4.847906322083873E-003
   GDM::trust : predicted energy change was   -9.089710913732682E-003
   GDM::trust : updated trust radius is        0.330000000000000     
   GDM:         diagonal hessian shift is      0.000000000000000E+000
   GDM::PreWSS: input subspace size is                 19
   GDM::PreWSS: working subspace size set to           18
   GDM::PrEWSS: # of linearly dependent vectors =            0
   GDM::PrEWSS: Max dev from orthonormality =   1.325752008174419E-012
   GDM::BFGS:   lowest Hinv e-value    0.127320312216244     
   GDM::BFGS:   highest Hinv e-value    2.72118870418381     
   GDM::      : max scaling in EWCs is          2.82842712474619     
   GDM::      : max rotation in step is        6.980270170691298E-002
   GDM::        grad.step =  -3.417093616370754E-003
   ------- Leaving GDM -- hopefully with a step in the right direction! --------
 
   37   -2435.7090894613      2.81E-02  Gap = 226.81 eV  Normal BFGS step
 
   ------------------- Entering Geometric Direct Minimization ------------------
   GDM::trust : actual energy change is        3.245166005854117E-003
   GDM::trust : predicted energy change was   -5.125640424556132E-003
   GDM::trust : updated trust radius is        0.108900000000000     
   GDM::search:  On step            1 .  The current bracket is:
       left   : x =  0.0000E+00, e =     -2435.7090894613, g = -0.2514E-01
       current: x =  0.1359E+00, e =     -2435.7058442953, g =  0.5008E-01
       right  : x =  0.1000E+04, e =      1000.0000000000, g =  0.1000E+04
       next   : x =  0.3486E-01
   GDM::      : max rotation in step is        1.790101106330568E-002
   ------- Leaving GDM -- hopefully with a step in the right direction! --------
 
   38   -2435.7058442953      1.36E-02  Gap = 226.81 eV  Line search: overstep
 
   ------------------- Entering Geometric Direct Minimization ------------------
   GDM::trust : actual energy change is       -1.105223697322799E-003
   GDM::trust : predicted energy change was   -5.125640424556132E-003
   GDM::trust : updated trust radius is        0.108900000000000     
   GDM:         diagonal hessian shift is      0.000000000000000E+000
   GDM::PreWSS: input subspace size is                 19
   GDM::PreWSS: working subspace size set to           18
   GDM::PrEWSS: # of linearly dependent vectors =            0
   GDM::PrEWSS: Max dev from orthonormality =   2.113899333355818E-012
   GDM::BFGS:   lowest Hinv e-value    0.116960089505577     
   GDM::BFGS:   highest Hinv e-value    2.30204270883983     
   GDM::      : max scaling in EWCs is          2.82842712474619     
   GDM::      : max rotation in step is        4.103599458446758E-002
   GDM::        grad.step =  -9.583502847744913E-004
   ------- Leaving GDM -- hopefully with a step in the right direction! --------
 
   39   -2435.7101946850      1.19E-02  Gap = 226.81 eV  Normal BFGS step
 
   ------------------- Entering Geometric Direct Minimization ------------------
   GDM::trust : actual energy change is        2.577546156317112E-004
   GDM::trust : predicted energy change was   -1.437525427161737E-003
   GDM::trust : updated trust radius is        0.108900000000000     
   GDM::search:  On step            1 .  The current bracket is:
       left   : x =  0.0000E+00, e =     -2435.7101946850, g = -0.1274E-01
       current: x =  0.7522E-01, e =     -2435.7099369304, g =  0.1644E-01
       right  : x =  0.1000E+04, e =      1000.0000000000, g =  0.1000E+04
       next   : x =  0.2964E-01
   GDM::      : max rotation in step is        1.616918782372025E-002
   ------- Leaving GDM -- hopefully with a step in the right direction! --------
 
   40   -2435.7099369304      3.20E-02  Gap = -24.09 eV  Line search: overstep
 
   ------------------- Entering Geometric Direct Minimization ------------------
   GDM::trust : actual energy change is       -4.214941795908089E-004
   GDM::trust : predicted energy change was   -1.437525427161737E-003
   GDM::trust : updated trust radius is        0.108900000000000     
   GDM:         diagonal hessian shift is      0.000000000000000E+000
   GDM::PreWSS: input subspace size is                 19
   GDM::PreWSS: working subspace size set to           18
   GDM::PrEWSS: # of linearly dependent vectors =            0
   GDM::PrEWSS: Max dev from orthonormality =   1.010910799514875E-011
   GDM::BFGS:   lowest Hinv e-value    0.113760146539083     
   GDM::BFGS:   highest Hinv e-value    2.40618164577407     
   GDM::      : max scaling in EWCs is          2.82842712474619     
   GDM::      : max rotation in step is        2.130913312106773E-002
   GDM::        grad.step =  -3.502153671192013E-004
   ------- Leaving GDM -- hopefully with a step in the right direction! --------
 
   41   -2435.7106161792      1.18E-02  Gap = 226.81 eV  Normal BFGS step
 
   ------------------- Entering Geometric Direct Minimization ------------------
   GDM::trust : actual energy change is       -2.431318575872865E-004
   GDM::trust : predicted energy change was   -5.253230506788017E-004
   GDM::trust : updated trust radius is        0.330000000000000     
   GDM:         diagonal hessian shift is      0.000000000000000E+000
   GDM::PreWSS: input subspace size is                 19
   GDM::PreWSS: working subspace size set to           18
   GDM::PrEWSS: # of linearly dependent vectors =            0
   GDM::PrEWSS: Max dev from orthonormality =   4.854776303186981E-012
   GDM::BFGS:   lowest Hinv e-value    0.124064944176572     
   GDM::BFGS:   highest Hinv e-value    2.42549543131380     
   GDM::      : max scaling in EWCs is          2.82842712474619     
   GDM::      : max rotation in step is        1.485296543738168E-002
   GDM::        grad.step =  -1.603957703242919E-004
   ------- Leaving GDM -- hopefully with a step in the right direction! --------
 
   42   -2435.7108593111      8.28E-03  Gap = 226.81 eV  Normal BFGS step
 
   ------------------- Entering Geometric Direct Minimization ------------------
   GDM::trust : actual energy change is       -9.532686726743123E-005
   GDM::trust : predicted energy change was   -2.405936554864379E-004
   GDM::trust : updated trust radius is        0.330000000000000     
   GDM:         diagonal hessian shift is      0.000000000000000E+000
   GDM::PreWSS: input subspace size is                 19
   GDM::PreWSS: working subspace size set to           18
   GDM::PrEWSS: # of linearly dependent vectors =            0
   GDM::PrEWSS: Max dev from orthonormality =   4.737659049791620E-012
   GDM::BFGS:   lowest Hinv e-value    0.123744500605096     
   GDM::BFGS:   highest Hinv e-value    2.75260567742816     
   GDM::      : max scaling in EWCs is          2.82842712474619     
   GDM::      : max rotation in step is        2.003107620488160E-002
   GDM::        grad.step =  -1.504917316207516E-004
   ------- Leaving GDM -- hopefully with a step in the right direction! --------
 
   43   -2435.7109546379      6.53E-03  Gap = 226.81 eV  Normal BFGS step
 
   ------------------- Entering Geometric Direct Minimization ------------------
   GDM::trust : actual energy change is       -1.627105557417963E-004
   GDM::trust : predicted energy change was   -2.257375974311274E-004
   GDM::trust : updated trust radius is        0.330000000000000     
   GDM:         diagonal hessian shift is      0.000000000000000E+000
   GDM::PreWSS: input subspace size is                 19
   GDM::PreWSS: working subspace size set to           18
   GDM::PrEWSS: # of linearly dependent vectors =            0
   GDM::PrEWSS: Max dev from orthonormality =   1.205854166519416E-011
   GDM::BFGS:   lowest Hinv e-value    0.123432813449977     
   GDM::BFGS:   highest Hinv e-value    3.55680476796298     
   GDM::      : max scaling in EWCs is          2.82842712474619     
   GDM::      : max rotation in step is        3.731437208707079E-002
   GDM::        grad.step =  -1.036942509442814E-004
   ------- Leaving GDM -- hopefully with a step in the right direction! --------
 
   44   -2435.7111173485      6.47E-03  Gap = 226.81 eV  Normal BFGS step
 
   ------------------- Entering Geometric Direct Minimization ------------------
   GDM::trust : actual energy change is       -1.996952364606841E-004
   GDM::trust : predicted energy change was   -1.555413764164222E-004
   GDM::trust : updated trust radius is        0.330000000000000     
   GDM::search:  On step            1 .  The current bracket is:
       left   : x =  0.0000E+00, e =     -2435.7111173485, g = -0.2636E-02
       current: x =  0.3934E-01, e =     -2435.7113170437, g = -0.2456E-02
       right  : x =  0.1000E+04, e =      1000.0000000000, g =  0.1000E+04
       next   : x =  0.3934E+00
   GDM::      : max rotation in step is        0.373143720870708     
   ------- Leaving GDM -- hopefully with a step in the right direction! --------
 
   45   -2435.7113170437      2.13E-03  Gap = 226.81 eV  Line search: understep
 
   ------------------- Entering Geometric Direct Minimization ------------------
   GDM::trust : actual energy change is       -9.581821796018630E-004
   GDM::trust : predicted energy change was   -1.555413764164222E-004
   GDM::trust : updated trust radius is        0.330000000000000     
   GDM:         diagonal hessian shift is      0.000000000000000E+000
   GDM::PreWSS: input subspace size is                 19
   GDM::PreWSS: working subspace size set to           18
   GDM::PrEWSS: # of linearly dependent vectors =            0
   GDM::PrEWSS: Max dev from orthonormality =   2.824653705379987E-012
   GDM::BFGS:   lowest Hinv e-value    0.106100221628557     
   GDM::BFGS:   highest Hinv e-value    29.8793262769311     
   GDM::      : max scaling in EWCs is          2.82842712474619     
   GDM::      : max rotation in step is       -0.148921179477156     
   GDM::        grad.step =  -1.598158192280038E-003
   ------- Leaving GDM -- hopefully with a step in the right direction! --------
 
   46   -2435.7120755307      3.59E-02  Gap = 226.81 eV  Normal BFGS step
 
   ------------------- Entering Geometric Direct Minimization ------------------
   GDM::trust : actual energy change is       -2.753517268047290E-003
   GDM::trust : predicted energy change was   -2.397237288420058E-003
   GDM::trust : updated trust radius is        0.330000000000000     
   GDM:         diagonal hessian shift is      0.000000000000000E+000
   GDM::PreWSS: input subspace size is                 19
   GDM::PreWSS: working subspace size set to           18
   GDM::PrEWSS: # of linearly dependent vectors =            0
   GDM::PrEWSS: Max dev from orthonormality =   1.889065293081416E-012
   GDM::BFGS:   lowest Hinv e-value    0.112752763858749     
   GDM::BFGS:   highest Hinv e-value    24.7151610004667     
   GDM::trust : dogleg step length is          0.330000000000000     
   GDM::      : max scaling in EWCs is          2.82842712474619     
   GDM::      : max rotation in step is       -0.768760459832245     
   GDM::        grad.step =  -1.982606208459581E-002
   ------- Leaving GDM -- hopefully with a step in the right direction! --------
 
   47   -2435.7148290479      3.62E-02  Gap = 226.81 eV  Dog-leg BFGS step
 
   ------------------- Entering Geometric Direct Minimization ------------------
   GDM::trust : actual energy change is        7.004064877946803E-003
   GDM::trust : predicted energy change was   -3.239967568848972E-002
   GDM::trust : updated trust radius is        0.108900000000000     
   GDM::search:  On step            1 .  The current bracket is:
       left   : x =  0.0000E+00, e =     -2435.7148290479, g = -0.2252E-01
       current: x =  0.8804E+00, e =     -2435.7078249830, g =  0.2756E-01
       right  : x =  0.1000E+04, e =      1000.0000000000, g =  0.1000E+04
       next   : x =  0.3253E+00
   GDM::      : max rotation in step is       -0.284036907952301     
   ------- Leaving GDM -- hopefully with a step in the right direction! --------
 
   48   -2435.7078249830      8.98E-02  Gap = 226.81 eV  Line search: overstep
 
   ------------------- Entering Geometric Direct Minimization ------------------
   GDM::trust : actual energy change is       -7.476190170564223E-003
   GDM::trust : predicted energy change was   -3.239967568848972E-002
   GDM::trust : updated trust radius is        0.108900000000000     
   GDM:         diagonal hessian shift is      0.000000000000000E+000
   GDM::PreWSS: input subspace size is                 19
   GDM::PreWSS: working subspace size set to           18
   GDM::PrEWSS: # of linearly dependent vectors =            0
   GDM::PrEWSS: Max dev from orthonormality =   3.320191344080570E-012
   GDM::BFGS:   lowest Hinv e-value    0.134819061322256     
   GDM::BFGS:   highest Hinv e-value    34.6273939648853     
   GDM::trust : dogleg step length is          0.108900000000000     
   GDM::      : max scaling in EWCs is          2.82842712474619     
   GDM::      : max rotation in step is        0.169161985284470     
   GDM::        grad.step =  -8.190041353583810E-003
   ------- Leaving GDM -- hopefully with a step in the right direction! --------
 
   49   -2435.7223052381      2.49E-02  Gap = 226.81 eV  Dog-leg BFGS step
 
   ------------------- Entering Geometric Direct Minimization ------------------
   GDM::trust : actual energy change is        1.293100068733111E-002
   GDM::trust : predicted energy change was   -1.984069302296270E-002
   GDM::trust : updated trust radius is        3.593700000000000E-002
   GDM::search:  On step            1 .  The current bracket is:
       left   : x =  0.0000E+00, e =     -2435.7223052381, g = -0.3183E-01
       current: x =  0.2573E+00, e =     -2435.7093742374, g =  0.8599E-01
       right  : x =  0.1000E+04, e =      1000.0000000000, g =  0.1000E+04
       next   : x =  0.4989E-01
   GDM::      : max rotation in step is        3.279771074387137E-002
   ------- Leaving GDM -- hopefully with a step in the right direction! --------
 
   50   -2435.7093742374      3.22E-01  Gap = 226.81 eV  Line search: overstep
 
   ------------------- Entering Geometric Direct Minimization ------------------
   GDM::trust : actual energy change is       -2.154955213427456E-003
   GDM::trust : predicted energy change was   -1.984069302296270E-002
   GDM::trust : updated trust radius is        3.593700000000000E-002
   GDM:         diagonal hessian shift is      0.000000000000000E+000
   GDM::PreWSS: input subspace size is                 19
   GDM::PreWSS: working subspace size set to           18
   GDM::PrEWSS: # of linearly dependent vectors =            0
   GDM::PrEWSS: Max dev from orthonormality =   7.552548864087072E-012
   GDM::BFGS:   lowest Hinv e-value    0.127776637278323     
   GDM::BFGS:   highest Hinv e-value    30.6672975914441     
   GDM::      : max scaling in EWCs is          2.82842712474619     
   GDM::      : max rotation in step is       -4.408660295279679E-002
   GDM::        grad.step =  -1.694160687722697E-003
   ------- Leaving GDM -- hopefully with a step in the right direction! --------
 
   51   -2435.7244601933      2.04E-02  Gap = 226.81 eV  Descent step
 
   ------------------- Entering Geometric Direct Minimization ------------------
   GDM::trust : actual energy change is       -1.756561768615938E-003
   GDM::trust : predicted energy change was   -2.212663404248752E-003
   GDM::trust : updated trust radius is        0.330000000000000     
   GDM:         diagonal hessian shift is      0.000000000000000E+000
   GDM::PreWSS: input subspace size is                 19
   GDM::PreWSS: working subspace size set to           18
   GDM::PrEWSS: # of linearly dependent vectors =            0
   GDM::PrEWSS: Max dev from orthonormality =   2.452718583789704E-012
   GDM::BFGS:   lowest Hinv e-value    0.142662705104849     
   GDM::BFGS:   highest Hinv e-value    37.5292674962163     
   GDM::trust : dogleg step length is          0.330000000000000     
   GDM::      : max scaling in EWCs is          2.82842712474619     
   GDM::      : max rotation in step is        0.694816228840726     
   GDM::        grad.step =  -9.595840393789246E-003
   ------- Leaving GDM -- hopefully with a step in the right direction! --------
 
   52   -2435.7262167551      3.42E-02  Gap = 226.81 eV  Dog-leg BFGS step
 
   ------------------- Entering Geometric Direct Minimization ------------------
   GDM::trust : actual energy change is        1.814256048510288E-002
   GDM::trust : predicted energy change was   -1.560427597004116E-002
   GDM::trust : updated trust radius is        0.108900000000000     
   GDM::search:  On step            1 .  The current bracket is:
       left   : x =  0.0000E+00, e =     -2435.7262167551, g = -0.1041E-01
       current: x =  0.9215E+00, e =     -2435.7080741946, g =  0.2282E-01
       right  : x =  0.1000E+04, e =      1000.0000000000, g =  0.1000E+04
       next   : x =  0.1594E+00
   GDM::      : max rotation in step is        0.120182588464279     
   ------- Leaving GDM -- hopefully with a step in the right direction! --------
 
   53   -2435.7080741946      1.81E-01  Gap = 226.81 eV  Line search: overstep
 
   ------------------- Entering Geometric Direct Minimization ------------------
   GDM::trust : actual energy change is       -2.312686028290045E-003
   GDM::trust : predicted energy change was   -1.560427597004116E-002
   GDM::trust : updated trust radius is        0.108900000000000     
   GDM:         diagonal hessian shift is      0.000000000000000E+000
   GDM::PreWSS: input subspace size is                 19
   GDM::PreWSS: working subspace size set to           18
   GDM::PrEWSS: # of linearly dependent vectors =            0
   GDM::PrEWSS: Max dev from orthonormality =   6.377766370579963E-012
   GDM::BFGS:   lowest Hinv e-value    0.166218704385501     
   GDM::BFGS:   highest Hinv e-value    8.41039736986918     
   GDM::      : max scaling in EWCs is          2.82842712474619     
   GDM::      : max rotation in step is       -0.227851362261828     
   GDM::        grad.step =  -2.228010620200454E-003
   ------- Leaving GDM -- hopefully with a step in the right direction! --------
 
   54   -2435.7285294411      1.66E-02  Gap = 226.81 eV  Normal BFGS step
 
   ------------------- Entering Geometric Direct Minimization ------------------
   GDM::trust : actual energy change is       -4.097534992979490E-004
   GDM::trust : predicted energy change was   -3.342015930300681E-003
   GDM::trust : updated trust radius is        0.330000000000000     
   GDM:         diagonal hessian shift is      0.000000000000000E+000
   GDM::PreWSS: input subspace size is                 19
   GDM::PreWSS: working subspace size set to           18
   GDM::PrEWSS: # of linearly dependent vectors =            0
   GDM::PrEWSS: Max dev from orthonormality =   2.937365628508104E-012
   GDM::BFGS:   lowest Hinv e-value    0.162441342599824     
   GDM::BFGS:   highest Hinv e-value    9.00050000884476     
   GDM::      : max scaling in EWCs is          2.82842712474619     
   GDM::      : max rotation in step is       -2.755879015987415E-002
   GDM::        grad.step =  -1.961060293753518E-003
   ------- Leaving GDM -- hopefully with a step in the right direction! --------
 
   55   -2435.7289391946      2.94E-02  Gap = 226.81 eV  Normal BFGS step
 
   ------------------- Entering Geometric Direct Minimization ------------------
   GDM::trust : actual energy change is       -1.028862298880995E-003
   GDM::trust : predicted energy change was   -2.941590440630279E-003
   GDM::trust : updated trust radius is        0.330000000000000     
   GDM:         diagonal hessian shift is      0.000000000000000E+000
   GDM::PreWSS: input subspace size is                 19
   GDM::PreWSS: working subspace size set to           18
   GDM::PrEWSS: # of linearly dependent vectors =            0
   GDM::PrEWSS: Max dev from orthonormality =   5.449543594160389E-012
   GDM::BFGS:   lowest Hinv e-value    0.154864834610063     
   GDM::BFGS:   highest Hinv e-value    8.86807169612603     
   GDM::      : max scaling in EWCs is          2.82842712474619     
   GDM::      : max rotation in step is        0.108793054538191     
   GDM::        grad.step =  -8.610766662603027E-004
   ------- Leaving GDM -- hopefully with a step in the right direction! --------
 
   56   -2435.7299680569      1.98E-02  Gap = 226.81 eV  Normal BFGS step
 
   ------------------- Entering Geometric Direct Minimization ------------------
   GDM::trust : actual energy change is       -1.993355012928077E-004
   GDM::trust : predicted energy change was   -1.291614999390454E-003
   GDM::trust : updated trust radius is        0.330000000000000     
   GDM:         diagonal hessian shift is      0.000000000000000E+000
   GDM::PreWSS: input subspace size is                 19
   GDM::PreWSS: working subspace size set to           18
   GDM::PrEWSS: # of linearly dependent vectors =            0
   GDM::PrEWSS: Max dev from orthonormality =   3.774230927788835E-012
   GDM::BFGS:   lowest Hinv e-value    0.165615633988752     
   GDM::BFGS:   highest Hinv e-value    5.66116777971340     
   GDM::      : max scaling in EWCs is          2.82842712474619     
   GDM::      : max rotation in step is       -7.222804450360147E-002
   GDM::        grad.step =  -5.609730175318690E-004
   ------- Leaving GDM -- hopefully with a step in the right direction! --------
 
   57   -2435.7301673924      1.24E-02  Gap = 226.81 eV  Normal BFGS step
 
   ------------------- Entering Geometric Direct Minimization ------------------
   GDM::trust : actual energy change is       -2.067049667857646E-004
   GDM::trust : predicted energy change was   -8.414595262978036E-004
   GDM::trust : updated trust radius is        0.330000000000000     
   GDM:         diagonal hessian shift is      0.000000000000000E+000
   GDM::PreWSS: input subspace size is                 19
   GDM::PreWSS: working subspace size set to           18
   GDM::PrEWSS: # of linearly dependent vectors =            0
   GDM::PrEWSS: Max dev from orthonormality =   8.834570228155592E-012
   GDM::BFGS:   lowest Hinv e-value    0.158264657439955     
   GDM::BFGS:   highest Hinv e-value    6.80571623740323     
   GDM::      : max scaling in EWCs is          2.82842712474619     
   GDM::      : max rotation in step is        2.420093677786257E-002
   GDM::        grad.step =  -4.511598225707384E-004
   ------- Leaving GDM -- hopefully with a step in the right direction! --------
 
   58   -2435.7303740974      1.28E-02  Gap = 226.81 eV  Normal BFGS step
 
   ------------------- Entering Geometric Direct Minimization ------------------
   GDM::trust : actual energy change is       -8.571395665057935E-005
   GDM::trust : predicted energy change was   -6.767397338561075E-004
   GDM::trust : updated trust radius is        0.330000000000000     
   GDM:         diagonal hessian shift is      0.000000000000000E+000
   GDM::PreWSS: input subspace size is                 19
   GDM::PreWSS: working subspace size set to           18
   GDM::PrEWSS: # of linearly dependent vectors =            0
   GDM::PrEWSS: Max dev from orthonormality =   7.058034712237315E-012
   GDM::BFGS:   lowest Hinv e-value    0.164269777345533     
   GDM::BFGS:   highest Hinv e-value    6.48796640998944     
   GDM::      : max scaling in EWCs is          2.82842712474619     
   GDM::      : max rotation in step is       -1.141338626035065E-002
   GDM::        grad.step =  -2.747586603325750E-004
   ------- Leaving GDM -- hopefully with a step in the right direction! --------
 
   59   -2435.7304598113      9.57E-03  Gap = 226.81 eV  Normal BFGS step
 
   ------------------- Entering Geometric Direct Minimization ------------------
   GDM::trust : actual energy change is       -2.388396769674728E-004
   GDM::trust : predicted energy change was   -4.121379904988626E-004
   GDM::trust : updated trust radius is        0.330000000000000     
   GDM:         diagonal hessian shift is      0.000000000000000E+000
   GDM::PreWSS: input subspace size is                 19
   GDM::PreWSS: working subspace size set to           18
   GDM::PrEWSS: # of linearly dependent vectors =            0
   GDM::PrEWSS: Max dev from orthonormality =   7.862967221772266E-012
   GDM::BFGS:   lowest Hinv e-value    0.166491861001534     
   GDM::BFGS:   highest Hinv e-value    6.64450137311780     
   GDM::      : max scaling in EWCs is          2.82842712474619     
   GDM::      : max rotation in step is        9.206881845195204E-003
   GDM::        grad.step =  -6.191558249140848E-005
   ------- Leaving GDM -- hopefully with a step in the right direction! --------
 
   60   -2435.7306986510      4.58E-03  Gap = 226.81 eV  Normal BFGS step
 
   ------------------- Entering Geometric Direct Minimization ------------------
   GDM::trust : actual energy change is       -3.716043420354254E-005
   GDM::trust : predicted energy change was   -9.287337373711271E-005
   GDM::trust : updated trust radius is        0.330000000000000     
   GDM:         diagonal hessian shift is      0.000000000000000E+000
   GDM::PreWSS: input subspace size is                 19
   GDM::PreWSS: working subspace size set to           18
   GDM::PrEWSS: # of linearly dependent vectors =            0
   GDM::PrEWSS: Max dev from orthonormality =   3.367982975843731E-012
   GDM::BFGS:   lowest Hinv e-value    0.165228780954516     
   GDM::BFGS:   highest Hinv e-value    8.42410121115617     
   GDM::      : max scaling in EWCs is          2.82842712474619     
   GDM::      : max rotation in step is       -1.712389271380598E-002
   GDM::        grad.step =  -4.776208157940393E-005
   ------- Leaving GDM -- hopefully with a step in the right direction! --------
 
   61   -2435.7307358114      4.28E-03  Gap = 226.81 eV  Normal BFGS step
 
   ------------------- Entering Geometric Direct Minimization ------------------
   GDM::trust : actual energy change is       -4.593732501234626E-005
   GDM::trust : predicted energy change was   -7.164312236910589E-005
   GDM::trust : updated trust radius is        0.330000000000000     
   GDM:         diagonal hessian shift is      0.000000000000000E+000
   GDM::PreWSS: input subspace size is                 19
   GDM::PreWSS: working subspace size set to           18
   GDM::PrEWSS: # of linearly dependent vectors =            0
   GDM::PrEWSS: Max dev from orthonormality =   5.988258500178034E-012
   GDM::BFGS:   lowest Hinv e-value    0.167836959653316     
   GDM::BFGS:   highest Hinv e-value    7.79254415300324     
   GDM::      : max scaling in EWCs is          2.82842712474619     
   GDM::      : max rotation in step is        1.230461635773128E-002
   GDM::        grad.step =  -3.999032381522678E-005
   ------- Leaving GDM -- hopefully with a step in the right direction! --------
 
   62   -2435.7307817488      3.55E-03  Gap = 226.81 eV  Normal BFGS step
 
   ------------------- Entering Geometric Direct Minimization ------------------
   GDM::trust : actual energy change is       -4.028815237688832E-005
   GDM::trust : predicted energy change was   -5.998548572284015E-005
   GDM::trust : updated trust radius is        0.330000000000000     
   GDM:         diagonal hessian shift is      0.000000000000000E+000
   GDM::PreWSS: input subspace size is                 19
   GDM::PreWSS: working subspace size set to           18
   GDM::PrEWSS: # of linearly dependent vectors =            0
   GDM::PrEWSS: Max dev from orthonormality =   5.081036286158636E-012
   GDM::BFGS:   lowest Hinv e-value    0.166888190400725     
   GDM::BFGS:   highest Hinv e-value    8.55596424444808     
   GDM::      : max scaling in EWCs is          2.82842712474619     
   GDM::      : max rotation in step is        2.723289325629111E-002
   GDM::        grad.step =  -3.521390454924804E-005
   ------- Leaving GDM -- hopefully with a step in the right direction! --------
 
   63   -2435.7308220369      2.17E-03  Gap = 226.81 eV  Normal BFGS step
 
   ------------------- Entering Geometric Direct Minimization ------------------
   GDM::trust : actual energy change is       -3.839621331280796E-005
   GDM::trust : predicted energy change was   -5.282085682387208E-005
   GDM::trust : updated trust radius is        0.330000000000000     
   GDM:         diagonal hessian shift is      0.000000000000000E+000
   GDM::PreWSS: input subspace size is                 19
   GDM::PreWSS: working subspace size set to           18
   GDM::PrEWSS: # of linearly dependent vectors =            0
   GDM::PrEWSS: Max dev from orthonormality =   1.969584564887050E-011
   GDM::BFGS:   lowest Hinv e-value    0.167535795538131     
   GDM::BFGS:   highest Hinv e-value    11.0743107090719     
   GDM::      : max scaling in EWCs is          2.82842712474619     
   GDM::      : max rotation in step is        2.870531681266239E-002
   GDM::        grad.step =  -3.098501539755805E-005
   ------- Leaving GDM -- hopefully with a step in the right direction! --------
 
   64   -2435.7308604331      2.27E-03  Gap = 226.81 eV  Normal BFGS step
 
   ------------------- Entering Geometric Direct Minimization ------------------
   GDM::trust : actual energy change is       -3.850814800898661E-005
   GDM::trust : predicted energy change was   -4.647752309633709E-005
   GDM::trust : updated trust radius is        0.330000000000000     
   GDM:         diagonal hessian shift is      0.000000000000000E+000
   GDM::PreWSS: input subspace size is                 19
   GDM::PreWSS: working subspace size set to           18
   GDM::PrEWSS: # of linearly dependent vectors =            0
   GDM::PrEWSS: Max dev from orthonormality =   7.058024303896460E-012
   GDM::BFGS:   lowest Hinv e-value    0.167588491845927     
   GDM::BFGS:   highest Hinv e-value    14.3406168903875     
   GDM::      : max scaling in EWCs is          2.82842712474619     
   GDM::      : max rotation in step is        2.500643437904932E-002
   GDM::        grad.step =  -1.658024185111897E-005
   ------- Leaving GDM -- hopefully with a step in the right direction! --------
 
   65   -2435.7308989413      2.14E-03  Gap = 226.81 eV  Normal BFGS step
 
   ------------------- Entering Geometric Direct Minimization ------------------
   GDM::trust : actual energy change is       -1.925220476550749E-005
   GDM::trust : predicted energy change was   -2.487036277667847E-005
   GDM::trust : updated trust radius is        0.330000000000000     
   GDM:         diagonal hessian shift is      0.000000000000000E+000
   GDM::PreWSS: input subspace size is                 19
   GDM::PreWSS: working subspace size set to           18
   GDM::PrEWSS: # of linearly dependent vectors =            0
   GDM::PrEWSS: Max dev from orthonormality =   3.432596221153439E-011
   GDM::BFGS:   lowest Hinv e-value    0.163079401112863     
   GDM::BFGS:   highest Hinv e-value    22.5378256346456     
   GDM::      : max scaling in EWCs is          2.82842712474619     
   GDM::      : max rotation in step is        3.334753489955020E-002
   GDM::        grad.step =  -1.548766757959630E-005
   ------- Leaving GDM -- hopefully with a step in the right direction! --------
 
   66   -2435.7309181935      1.01E-03  Gap = 0.00 eV  Normal BFGS step
 
   ------------------- Entering Geometric Direct Minimization ------------------
   GDM::trust : actual energy change is       -1.151715332525782E-005
   GDM::trust : predicted energy change was   -2.323150136939445E-005
   GDM::trust : updated trust radius is        0.330000000000000     
   GDM:         diagonal hessian shift is      0.000000000000000E+000
   GDM::PreWSS: input subspace size is                 19
   GDM::PreWSS: working subspace size set to           18
   GDM::PrEWSS: # of linearly dependent vectors =            0
   GDM::PrEWSS: Max dev from orthonormality =   3.529132541757463E-011
   GDM::BFGS:   lowest Hinv e-value    0.167126430151793     
   GDM::BFGS:   highest Hinv e-value    20.2867489835776     
   GDM::      : max scaling in EWCs is          2.82842712474619     
   GDM::      : max rotation in step is       -4.152424009732952E-003
   GDM::        grad.step =  -7.891810308040421E-006
   ------- Leaving GDM -- hopefully with a step in the right direction! --------
 
   67   -2435.7309297106      2.28E-03  Gap = 0.00 eV  Normal BFGS step
 
   ------------------- Entering Geometric Direct Minimization ------------------
   GDM::trust : actual energy change is       -6.766882961528609E-006
[...]
   GDM:         diagonal hessian shift is      0.000000000000000E+000
   GDM::PreWSS: input subspace size is                  1
   GDM::PreWSS: working subspace size set to            1
   GDM::PrEWSS: # of linearly dependent vectors =            0
   GDM::PrEWSS: Max dev from orthonormality =   2.220446049250313E-016
   GDM::BFGS:   lowest Hinv e-value     1.00000000000000     
   GDM::BFGS:   highest Hinv e-value    1.00000000000000     
   GDM::      : max scaling in EWCs is          2.11885729810686     
   GDM::      : max rotation in step is       -3.014369019690231E-004
   GDM::        grad.step =  -8.585293382130516E-007
   ------- Leaving GDM -- hopefully with a step in the right direction! --------
 
 ---------------------------------------
  Cycle       Energy        RMS Gradient
 ---------------------------------------
    1   -2435.8718950871      2.02E-04  Gap = 110.03 eV  Normal BFGS step
 
   ------------------- Entering Geometric Direct Minimization ------------------
   GDM::trust : actual energy change is       -9.046343620866537E-007
   GDM::trust : predicted energy change was   -1.287794007319577E-006
   GDM::trust : updated trust radius is        0.330000000000000     
   GDM:         diagonal hessian shift is      0.000000000000000E+000
   GDM::PreWSS: input subspace size is                  2
   GDM::PreWSS: working subspace size set to            2
   GDM::PrEWSS: # of linearly dependent vectors =            1
   GDM::PrEWSS: Max dev from orthonormality =   8.673617379884035E-017
   GDM::BFGS:   lowest Hinv e-value    0.720539196160735     
   GDM::BFGS:   highest Hinv e-value    1.46662757244109     
   GDM::      : max scaling in EWCs is          2.11845754102352     
   GDM::      : max rotation in step is       -1.098344521429303E-004
   GDM::        grad.step =  -1.145580586889278E-007
   ------- Leaving GDM -- hopefully with a step in the right direction! --------
 
    2   -2435.8718959918      5.63E-05  Gap = 110.03 eV  Normal BFGS step
 
   ------------------- Entering Geometric Direct Minimization ------------------
   GDM::trust : actual energy change is        1.008302206173539E-007
   GDM::trust : predicted energy change was   -1.718370880333916E-007
   GDM::trust : updated trust radius is        0.108900000000000     
   GDM::search:  On step            1 .  The current bracket is:
       left   : x =  0.0000E+00, e =     -2435.8718959918, g = -0.2430E-03
       current: x =  0.4715E-03, e =     -2435.8718958909, g =  0.4568E-03
       right  : x =  0.1000E+04, e =      1000.0000000000, g =  0.1000E+04
       next   : x =  0.1254E-03
   GDM::      : max rotation in step is       -2.920869616299748E-005
   ------- Leaving GDM -- hopefully with a step in the right direction! --------
 
    3   -2435.8718958909      5.51E-04  Gap = 110.03 eV  Line search: overstep
 
   ------------------- Entering Geometric Direct Minimization ------------------
   GDM::trust : actual energy change is       -3.760169420274906E-008
   GDM::trust : predicted energy change was   -1.718370880333916E-007
   GDM::trust : updated trust radius is        0.108900000000000     
   GDM:         diagonal hessian shift is      0.000000000000000E+000
   GDM::PreWSS: input subspace size is                  3
   GDM::PreWSS: working subspace size set to            3
   GDM::PrEWSS: # of linearly dependent vectors =            2
   GDM::PrEWSS: Max dev from orthonormality =   6.765421556309548E-016
   GDM::BFGS:   lowest Hinv e-value    0.291697397736531     
   GDM::BFGS:   highest Hinv e-value    1.34969166692491     
   GDM::      : max scaling in EWCs is          2.11877002456007     
   GDM::      : max rotation in step is       -6.479158000366018E-005
   GDM::        grad.step =  -1.389658943330703E-008
   ------- Leaving GDM -- hopefully with a step in the right direction! --------
 
    4   -2435.8718960294      2.60E-05  Gap = 110.03 eV  Normal BFGS step
 
   ------------------- Entering Geometric Direct Minimization ------------------
   GDM::trust : actual energy change is        5.115907697472721E-010
   GDM::trust : predicted energy change was   -2.084488414996056E-008
   GDM::trust : updated trust radius is        0.108900000000000     
   GDM::WARNING energy changes are now smaller than effective accuracy.
   GDM::        calculation will continue, but THRESH should be increased
   GDM::        or SCF_CONVERGENCE decreased.
   GDM::        effective_thresh =   5.400000000000000E-010
   GDM:         diagonal hessian shift is      0.000000000000000E+000
   GDM::PreWSS: input subspace size is                  4
   GDM::PreWSS: working subspace size set to            4
   GDM::PrEWSS: # of linearly dependent vectors =            3
   GDM::PrEWSS: Max dev from orthonormality =   7.962380754733545E-016
   GDM::BFGS:   lowest Hinv e-value    0.275674579022415     
   GDM::BFGS:   highest Hinv e-value    1.75990417351078     
   GDM::      : max scaling in EWCs is          2.11853940780265     
   GDM::      : max rotation in step is        3.724891222993926E-005
   GDM::        grad.step =  -1.224769173412585E-008
   ------- Leaving GDM -- hopefully with a step in the right direction! --------
 
    5   -2435.8718960289      4.87E-05  Gap = 110.03 eV  Normal BFGS step
 
   ------------------- Entering Geometric Direct Minimization ------------------
   GDM::trust : actual energy change is       -6.260052032303065E-009
   GDM::trust : predicted energy change was   -1.837153760118878E-008
   GDM::trust : updated trust radius is        0.330000000000000     
   GDM:         diagonal hessian shift is      0.000000000000000E+000
   GDM::PreWSS: input subspace size is                  5
   GDM::PreWSS: working subspace size set to            5
   GDM::PrEWSS: # of linearly dependent vectors =            4
   GDM::PrEWSS: Max dev from orthonormality =   1.275021754842953E-015
   GDM::BFGS:   lowest Hinv e-value    0.230626734738479     
   GDM::BFGS:   highest Hinv e-value    1.55707118521386     
   GDM::      : max scaling in EWCs is          2.11886153830823     
   GDM::      : max rotation in step is        2.262087052668783E-005
   GDM::        grad.step =  -5.085855750024822E-009
   ------- Leaving GDM -- hopefully with a step in the right direction! --------
 
    6   -2435.8718960351      2.48E-05  Gap = 110.03 eV  Normal BFGS step
 
   ------------------- Entering Geometric Direct Minimization ------------------
   GDM::trust : actual energy change is       -2.153228706447408E-009
   GDM::trust : predicted energy change was   -7.628783625037232E-009
   GDM::trust : updated trust radius is        0.330000000000000     
   GDM:         diagonal hessian shift is      0.000000000000000E+000
   GDM::PreWSS: input subspace size is                  6
   GDM::PreWSS: working subspace size set to            6
   GDM::PrEWSS: # of linearly dependent vectors =            5
   GDM::PrEWSS: Max dev from orthonormality =   1.873501354054952E-015
   GDM::BFGS:   lowest Hinv e-value    0.257565210579746     
   GDM::BFGS:   highest Hinv e-value    1.48430357575502     
   GDM::      : max scaling in EWCs is          2.11874678519387     
   GDM::      : max rotation in step is       -8.632403323974634E-006
   GDM::        grad.step =  -1.726576462845754E-009
   ------- Leaving GDM -- hopefully with a step in the right direction! --------
 
    7   -2435.8718960373      1.19E-05  Gap = 110.03 eV  Normal BFGS step
 
   ------------------- Entering Geometric Direct Minimization ------------------
   GDM::trust : actual energy change is       -1.202351995743811E-009
   GDM::trust : predicted energy change was   -2.589864694268630E-009
   GDM::trust : updated trust radius is        0.330000000000000     
   GDM:         diagonal hessian shift is      0.000000000000000E+000
   GDM::PreWSS: input subspace size is                  7
   GDM::PreWSS: working subspace size set to            7
   GDM::PrEWSS: # of linearly dependent vectors =            6
   GDM::PrEWSS: Max dev from orthonormality =   3.438221929386032E-015
   GDM::BFGS:   lowest Hinv e-value    0.255567870657015     
   GDM::BFGS:   highest Hinv e-value    1.61374832679232     
   GDM::      : max scaling in EWCs is          2.11875338880900     
   GDM::      : max rotation in step is       -6.433467833116341E-006
   GDM::        grad.step =  -4.842013089485350E-010
   ------- Leaving GDM -- hopefully with a step in the right direction! --------
 
    8   -2435.8718960385      8.35E-06 Convergence criterion met
 ---------------------------------------
 One-Electron    Energy = -5059.2712605759
 Total Coulomb   Energy =  1940.2399780941
 Alpha Exchange  Energy =   -15.5476243273
 Beta  Exchange  Energy =   -15.5476243273
 DFT   Exchange  Energy =  -123.5636205946
 DFT Correlation Energy =    -5.5004422322
 Nuclear Repu.   Energy =   843.3186979248
 Nuclear Attr.   Energy = -7467.5146677484
 Kinetic         Energy =  2408.2434071725
 SCF time:  CPU 54.09 s  wall 25.43 s
 SCF   energy in the final basis set = -2435.8718960385
 Total energy in the final basis set = -2435.8718960385
 
 --------------------------------------------------------------
 
                    Orbital Energies (a.u.)
 --------------------------------------------------------------
 
 Alpha MOs
 -- Occupied --
-88.965 -88.942 -88.898 -88.893 -88.890 -88.890  -8.038  -8.016
 -7.975  -7.969  -7.967  -7.966  -6.002  -5.998  -5.993  -5.981
 -5.977  -5.968  -5.940  -5.935  -5.932  -5.931  -5.931  -5.930
 -5.927  -5.925  -5.924  -5.924  -5.923  -5.922  -2.095  -1.300
 -1.293  -1.290  -0.872  -0.788  -0.785  -0.700  -0.637  -0.626
 -0.457  -0.430  -0.416  -0.384  -0.378  -0.360  -0.352  -0.337
 -0.323  -0.302  -0.298  -0.288  -0.261  -0.241
 -- Virtual --
 -0.130  -0.125  -0.107  -0.097  -0.090  -0.082  -0.066  -0.052
 -0.026  -0.009   0.015   0.016   0.019   0.045   0.052   0.055
  0.058   0.061   0.070   0.074   0.077   0.083   0.088   0.094
  0.097   0.099   0.111   0.119   0.121   0.123   0.130   0.133
  0.138   0.147   0.150   0.165   0.175   0.195   0.215   0.222
  0.236   0.251   0.271   0.286   0.378   0.400   0.431   0.438
  0.454   0.459   0.465   0.479   0.482   0.497   0.502   0.516
  0.524   0.529   0.535   0.537   0.541   0.561   0.572   0.599
  0.614   0.625   0.627   0.645   0.657   0.674   0.680   0.688
  0.692   0.707   0.714   0.727   0.740   0.754   0.758   0.780
  0.794   0.808   0.821   0.830   0.849   0.857   0.876   0.878
  0.884   0.899   0.917   0.927   0.947   0.966   1.053   1.157
  1.184   1.192   1.200   5.924
 --------------------------------------------------------------
 
          Ground-State Mulliken Net Atomic Charges

     Atom                 Charge (a.u.)
  ----------------------------------------
      1 Zr                   -0.028231
      2 S                    -0.077918
      3 S                    -0.089721
      4 S                     0.156182
      5 S                     0.101558
      6 S                    -0.045172
      7 S                    -0.016698
  ----------------------------------------
  Sum of atomic charges =     0.000000

 -----------------------------------------------------------------
                    Cartesian Multipole Moments
 -----------------------------------------------------------------
    Charge (ESU x 10^10)
                 0.0000
    Dipole Moment (Debye)
         X       0.9932      Y       0.4608      Z      -1.1322
       Tot       1.5750
    Quadrupole Moments (Debye-Ang)
        XX    -107.4772     XY      -0.0407     YY    -107.2403
        XZ       6.3330     YZ       0.2800     ZZ    -100.0487
    Octopole Moments (Debye-Ang^2)
       XXX     -26.6557    XXY       1.3299    XYY     -20.2319
       YYY      11.2074    XXZ      12.2079    XYZ       1.5558
       YYZ       8.9981    XZZ     -22.6689    YZZ       6.8541
       ZZZ      21.2994
    Hexadecapole Moments (Debye-Ang^3)
      XXXX   -2132.2631   XXXY      21.2000   XXYY    -503.9293
      XYYY      23.9704   YYYY    -901.3668   XXXZ      84.3440
      XXYZ      -3.6973   XYYZ      30.8702   YYYZ     -31.8061
      XXZZ    -449.4360   XYZZ      13.1300   YYZZ    -236.0148
      XZZZ      93.3056   YZZZ     -35.1203   ZZZZ    -516.6105
 -----------------------------------------------------------------
 Calculating analytic gradient of the SCF energy
 Gradient of SCF Energy
            1           2           3           4           5           6
    1   0.0000262  -0.0000107   0.0000105   0.0000098  -0.0000011  -0.0000083
    2  -0.0000212  -0.0000151   0.0000141  -0.0000055   0.0000235   0.0000473
    3  -0.0000250  -0.0000078   0.0000197  -0.0000033   0.0000101   0.0000156
            7
    1  -0.0000265
    2  -0.0000432
    3  -0.0000092
 Max gradient component =       4.730E-05
 RMS gradient           =       2.053E-05
 Gradient time:  CPU 26.81 s  wall 9.24 s
 Geometry Optimization Parameters
   NAtoms,    NIC,     NZ,  NCons,   NDum,   NFix, NCnnct, MaxDiis
        7      44       0       0       0       0       0       0

 Cartesian Hessian Update
 Hessian Updated using BFGS Update


** GEOMETRY OPTIMIZATION IN DELOCALIZED INTERNAL COORDINATES **
   Searching for a Minimum

   Optimization Cycle:  47

                       Coordinates (Angstroms)
     ATOM                X               Y               Z
      1  Zr       -0.4146158372    0.0198785643   -0.4606769231
      2  S        -2.8269748072   -0.1547504020   -0.4157024935
      3  S        -1.8474652188    0.0052797001    1.4815485846
      4  S         1.8025404565    0.7682463922    0.8087460583
      5  S         2.7501517069   -0.9481551388    0.0179979101
      6  S         1.0941823771   -1.9305806555   -0.9154113281
      7  S         1.1235213226    1.9651915397   -0.8257818083
   Point Group: c1    Number of degrees of freedom:    15


   Energy is  -2435.871896038

 Hessian Updated using BFGS Update

 15 Hessian modes will be used to form the next step
  Hessian Eigenvalues:
     0.005425    0.016871    0.036928    0.053363    0.073403    0.093414
     0.115988    0.118222    0.146129    0.172821    0.241644    0.308887
     0.389246    1.129016    3.607958

 Minimum Search - Taking Simple RFO Step
 Searching for Lamda that Minimizes Along All modes
 Value Taken    Lamda =   0.00000000
 Step Taken.  Stepsize is  0.001625

                             Maximum     Tolerance    Cnvgd?
         Gradient           0.000045      0.000300     YES
         Displacement       0.000983      0.001200     YES
         Energy change      0.000000      0.000001     YES


                       Distance Matrix (Angstroms)
             Zr(  1)   S (  2)   S (  3)   S (  4)   S (  5)   S (  6)
   S (  2)  2.419089
   S (  3)  2.413609  2.141170
   S (  4)  2.662193  4.876844  3.789106
   S (  5)  3.343946  5.649949  4.918242  2.114068
   S (  6)  2.507498  4.333446  4.259843  3.279963  2.139777
   S (  7)  2.506673  4.502082  4.241673  2.136686  3.441726  3.896914

 
 Final energy is   -2435.87189603848     


 ******************************
 **  OPTIMIZATION CONVERGED  **
 ******************************

                       Coordinates (Angstroms)
     ATOM                X               Y               Z
      1  Zr       -0.4146158372    0.0198785643   -0.4606769231
      2  S        -2.8269748072   -0.1547504020   -0.4157024935
      3  S        -1.8474652188    0.0052797001    1.4815485846
      4  S         1.8025404565    0.7682463922    0.8087460583
      5  S         2.7501517069   -0.9481551388    0.0179979101
      6  S         1.0941823771   -1.9305806555   -0.9154113281
      7  S         1.1235213226    1.9651915397   -0.8257818083

Z-matrix Print:
$molecule
0 1
Zr
S  1 2.413609
S  2 2.141170 1 63.832322
S  1 2.506673 2 119.089618 3 -122.729950 0
S  4 2.136686 1 69.441957 2 -71.502637 0
S  5 2.114068 4 108.127072 1 -77.586102 0
S  6 2.139777 5 100.896316 4 65.887535 0
$end

 
 --------------------------------------------------------------
 
                    Orbital Energies (a.u.)
 --------------------------------------------------------------
 
 Alpha MOs
 -- Occupied --
-88.965 -88.942 -88.898 -88.893 -88.890 -88.890  -8.038  -8.016
 -7.975  -7.969  -7.967  -7.966  -6.002  -5.998  -5.993  -5.981
 -5.977  -5.968  -5.940  -5.935  -5.932  -5.931  -5.931  -5.930
 -5.927  -5.925  -5.924  -5.924  -5.923  -5.922  -2.095  -1.300
 -1.293  -1.290  -0.872  -0.788  -0.785  -0.700  -0.637  -0.626
 -0.457  -0.430  -0.416  -0.384  -0.378  -0.360  -0.352  -0.337
 -0.323  -0.302  -0.298  -0.288  -0.261  -0.241
 -- Virtual --
 -0.130  -0.125  -0.107  -0.097  -0.090  -0.082  -0.066  -0.052
 -0.026  -0.009   0.015   0.016   0.019   0.045   0.052   0.055
  0.058   0.061   0.070   0.074   0.077   0.083   0.088   0.094
  0.097   0.099   0.111   0.119   0.121   0.123   0.130   0.133
  0.138   0.147   0.150   0.165   0.175   0.195   0.215   0.222
  0.236   0.251   0.271   0.286   0.378   0.400   0.431   0.438
  0.454   0.459   0.465   0.479   0.482   0.497   0.502   0.516
  0.524   0.529   0.535   0.537   0.541   0.561   0.572   0.599
  0.614   0.625   0.627   0.645   0.657   0.674   0.680   0.688
  0.692   0.707   0.714   0.727   0.740   0.754   0.758   0.780
  0.794   0.808   0.821   0.830   0.849   0.857   0.876   0.878
  0.884   0.899   0.917   0.927   0.947   0.966   1.053   1.157
  1.184   1.192   1.200   5.924
 --------------------------------------------------------------
 
          Ground-State Mulliken Net Atomic Charges

     Atom                 Charge (a.u.)
  ----------------------------------------
      1 Zr                   -0.028231
      2 S                    -0.077918
      3 S                    -0.089721
      4 S                     0.156182
      5 S                     0.101558
      6 S                    -0.045172
      7 S                    -0.016698
  ----------------------------------------
  Sum of atomic charges =     0.000000

 -----------------------------------------------------------------
                    Cartesian Multipole Moments
 -----------------------------------------------------------------
    Charge (ESU x 10^10)
                 0.0000
    Dipole Moment (Debye)
         X       0.9932      Y       0.4608      Z      -1.1322
       Tot       1.5750
    Quadrupole Moments (Debye-Ang)
        XX    -107.4772     XY      -0.0407     YY    -107.2403
        XZ       6.3330     YZ       0.2800     ZZ    -100.0487
    Octopole Moments (Debye-Ang^2)
       XXX     -26.6557    XXY       1.3299    XYY     -20.2319
       YYY      11.2074    XXZ      12.2079    XYZ       1.5558
       YYZ       8.9981    XZZ     -22.6689    YZZ       6.8541
       ZZZ      21.2994
    Hexadecapole Moments (Debye-Ang^3)
      XXXX   -2132.2631   XXXY      21.2000   XXYY    -503.9293
      XYYY      23.9704   YYYY    -901.3668   XXXZ      84.3440
      XXYZ      -3.6973   XYYZ      30.8702   YYYZ     -31.8061
      XXZZ    -449.4360   XYZZ      13.1300   YYZZ    -236.0148
      XZZZ      93.3056   YZZZ     -35.1203   ZZZZ    -516.6105
 -----------------------------------------------------------------
Archival summary:
1\1\hpc3894\OPT\ProcedureUnspecified\BasisUnspecified\r16(\liqiuy\FriJan1721:52:072020FriJan1721:52:072020\0\\#,OPT,ProcedureUnspecified,BasisUnspecified,\\28,1\Zr\S,1,2.41361\S,2,2.14117,1,63.8323\S,1,2.50667,2,119.09,3,-122.73,0\S,4,2.13669,1,69.442,2,-71.5026,0\S,5,2.11407,4,108.127,1,-77.5861,0\S,6,2.13978,5,100.896,4,65.8875,0\\\@

 Total job time:  1459.90s(wall), 7284.97s(cpu) 
 Fri Jan 17 21:52:07 2020

        *************************************************************
        *                                                           *
        *  Thank you very much for using Q-Chem.  Have a nice day.  *
        *                                                           *
        *************************************************************


0 sent ACK to 0 
now end server 0 ... 
cleanup process ... done
