
Running Job 1 of 2 ZrOx.in
qchem ZrOx.in_10155.0 /tmp/5790264.priya/ZrOx.save/ 1
/usr/usc/qchem/4.4/bin/mpi/mpirun_qchem -machinefile /usr/usc/qchem/4.4/bin/mpi/machines -np 1 /usr/usc/qchem/4.4/exe/qcprog.exe ZrOx.in_10155.0 /tmp/5790264.priya/ZrOx.save/

Process 0 of 1 is on hpc0241.hpcc.usc.edu - thread support 0
initial socket setup ...start
initial socket setup ...done 
now start server 0 ... 
Check license passed

                  Welcome to Q-Chem
     A Quantum Leap Into The Future Of Chemistry


 Q-Chem 4.4, Q-Chem, Inc., Pleasanton, CA (2016)

 Y. Shao,  Z. Gan,  E. Epifanovsky,  A. T. B. Gilbert,  M. Wormit,  
 J. Kussmann,  A. W. Lange,  A. Behn,  J. Deng,  X. Feng,  D. Ghosh,  
 M. Goldey,  P. R. Horn,  L. D. Jacobson,  I. Kaliman,  F.Rob,  
 R. Z. Khaliullin,  T. Kus,  A. Landau,  J. Liu,  E. I. Proynov,  Y. M. Rhee,  
 R. M. Richard,  M. A. Rohrdanz,  R. P. Steele,  E. J. Sundstrom,  
 H. L. Woodcock III,  P. M. Zimmerman,  D. Zuev,  B. Albrecht,  E. Alguire,  
 B. Austin,  S. A. Baeppler,  G. J. O. Beran,  Y. A. Bernard,  E. Berquist,  
 K. Brandhorst,  K. B. Bravaya,  S. T. Brown,  D. Casanova,  C.-M. Chang,  
 Y. Chen,  S. H. Chien,  K. D. Closser,  M. P. Coons,  D. L. Crittenden,  
 S. Dasgupta,  M. Diedenhofen,  R. A. DiStasio Jr.,  H. Do,  A. D. Dutoi,  
 R. G. Edgar,  P.-T. Fang,  S. Fatehi,  Q. Feng,  L. Fusti-Molnar,  
 A. Ghysels,  A. Golubeva-Zadorozhnaya,  J. Gomes,  A. Gunina,  
 M. W. D. Hanson-Heine,  P. H. P. Harbach,  A. W. Hauser,  E. G. Hohenstein,  
 Z. C. Holden,  K. Hui,  T.-C. Jagau,  H. Ji,  B. Kaduk,  K. Khistyaev,  
 Jaehoon Kim,  Jihan Kim,  R. A. King,  P. Klunzinger,  D. Kosenkov,  
 T. Kowalczyk,  C. M. Krauter,  A. Kunitsa,  K. U. Lao,  A. Laurent,  
 K. V. Lawler,  D. Lefrancois,  S. Lehtola,  S. V. Levchenko,  C. Y. Lin,  
 Y.-S. Lin,  F. Liu,  E. Livshits,  R. C. Lochan,  A. Luenser,  P. Manohar,  
 S. F. Manzer,  S.-P. Mao,  Y. Mao,  N. Mardirossian,  A. V. Marenich,  
 L. A. Martinez-Martinez,  S. A. Maurer,  N. J. Mayhall,  J.-M. Mewes,  
 A. F. Morrison,  K. Nanda,  C. M. Oana,  R. Olivares-Amaya,  D. P. O'Neill,  
 J. A. Parkhill,  T. M. Perrine,  R. Peverati,  P. A. Pieniazek,  F. Plasser,  
 A. Prociuk,  D. R. Rehn,  E. Rosta,  N. J. Russ,  N. Sergueev,  
 S. M. Sharada,  S. Sharma,  D. W. Small,  A. Sodt,  T. Stauch,  T. Stein,  
 D. Stuck,  Y.-C. Su,  A. J. W. Thom,  T. Tsuchimochi,  L. Vogt,  O. Vydrov,  
 T. Wang,  M. A. Watson,  J. Wenzel,  A. White,  C. F. Williams,  
 V. Vanovschi,  S. Yeganeh,  S. R. Yost,  Z.-Q. You,  I. Y. Zhang,  X. Zhang,  
 Y. Zhao,  B. R. Brooks,  G. K. L. Chan,  D. M. Chipman,  C. J. Cramer,  
 W. A. Goddard III,  M. S. Gordon,  W. J. Hehre,  A. Klamt,  
 H. F. Schaefer III,  M. W. Schmidt,  C. D. Sherrill,  D. G. Truhlar,  
 A. Warshel,  X. Xu,  A. Aspuru-Guzik,  R. Baer,  A. T. Bell,  N. A. Besley,  
 J.-D. Chai,  A. Dreuw,  B. D. Dunietz,  T. R. Furlani,  S. R. Gwaltney,  
 C.-P. Hsu,  Y. Jung,  J. Kong,  D. S. Lambrecht,  W. Liang,  C. Ochsenfeld,  
 V. A. Rassolov,  L. V. Slipchenko,  J. E. Subotnik,  T. Van Voorhis,  
 J. M. Herbert,  A. I. Krylov,  P. M. W. Gill,  M. Head-Gordon

 Contributors to earlier versions of Q-Chem not listed above: 
 R. D. Adamson,  J. Baker,  E. F. C. Byrd,  A. K. Chakraborty,  C.-L. Cheng,  
 H. Dachsel,  R. J. Doerksen,  G. Hawkins,  A. Heyden,  S. Hirata,  
 G. Kedziora,  F. J. Keil,  C. Kelley,  P. P. Korambath,  W. Kurlancheek,  
 A. M. Lee,  M. S. Lee,  D. Liotard,  I. Lotan,  P. E. Maslen,  N. Nair,  
 D. Neuhauser,  R. Olson,  B. Peters,  J. Ritchie,  N. E. Schultz,  
 N. Shenvi,  A. C. Simmonett,  K. S. Thanthiriwatte,  Q. Wu,  W. Zhang

 Please cite Q-Chem as follows:
 Y. Shao et al., Mol. Phys. 113, 184-215 (2015)
 DOI: 10.1080/00268976.2014.952696

 Q-Chem 4.4.1 for Intel X86 Linux

 Parts of Q-Chem use Armadillo 5.200.1 (Boston Tea Smuggler).
 http://arma.sourceforge.net/

 Q-Chem begins on Tue Jan 21 14:21:42 2020  

Host: 
0

     Scratch files written to /tmp/5790264.priya/ZrOx.save//
 Jul2716 11668_ 21447  21445 5558   
 Parallel job on  1  processors
Processing $rem in /usr/usc/qchem/4.4/config/preferences.
 MEM_TOTAL  2000 

Checking the input file for inconsistencies... 	...done.

--------------------------------------------------------------
User input:
--------------------------------------------------------------
$comment
--------------------------------------------------------
A SINGLE POINT DFT CALCULATION WITH BASIS SET PROJECTION
--------------------------------------------------------
$end

$molecule
0 1
Zr 0.00000 0.00000 0.00000
O 0.00000 0.00000 1.78128
S 0.00000 0.00000 -1.78127
$end

$rem
JOBTYPE   SP
METHOD   B3LYP
BASIS   GEN
ECP   GEN
MAX_SCF_CYCLES   200
SCF_CONVERGENCE 8
SCF_PRINT 1
PDB_PRINT 2
THRESH 14
VARTHRESH 14
INCDFT FALSE
SYMMETRY False
Sym_ignore True
SCF_ALGORITHM GDM
XC_GRID 000128000302
DFT_D           EMPIRICAL_GRIMME3
DFT_D3_S6       1000
DFT_D3_RS6     1261
DFT_D3_S8      1703
DFT_D3_3BODY    FALSE
$end

$basis
O
6-31+G**
****
S
6-31+G**
****
Zr
LanL2DZ
****
$end

$ecp
Zr
LanL2DZ
****
$end

--------------------------------------------------------------
 ----------------------------------------------------------------
             Standard Nuclear Orientation (Angstroms)
    I     Atom           X                Y                Z
 ----------------------------------------------------------------
    1      Zr      0.0000000000     0.0000000000     0.0000000000
    2      O       0.0000000000     0.0000000000     1.7812800000
    3      S       0.0000000000     0.0000000000    -1.7812700000
 ----------------------------------------------------------------
 Nuclear Repulsion Energy =   104.5709882941 hartrees
 There are       18 alpha and       18 beta electrons

 Q-Chem warning in module /home/scratch/svnadmin/11668_zgan/qchem/forms1/BasisType.C, line 1419:

 Setting pure/cartesian flag to 2111 for general basis


 Requested basis set is non-standard
 There are 19 shells and 62 basis functions

 Total QAlloc Memory Limit   2000 MB
 Mega-Array Size        61 MB
 MEM_STATIC part        62 MB

                       Distance Matrix (Angstroms)
             Zr(  1)   O (  2)
   O (  2)  1.781280
   S (  3)  1.781270  3.562550
 
 A cutoff of  1.0D-14 yielded    186 shell pairs
 There are      2030 function pairs (      2307 Cartesian)
 
 -------------------------------------------------------
 OpenMP Integral Computing Module                       
 Release: version 1.0, May 2013, Q-Chem Inc. Pittsburgh 
 -------------------------------------------------------
 Integral Job Info:
 Integral job number is                      11
 Integral operator is                         1
 short-range coefficients                     0
 long-range coefficients              100000000
 Omega coefficients                           0
 if combine SR and LR in K                    0
 Integral screening is                        0
 Integral computing path is                   2
 max size of driver memory is            800000
 size of driver memory is                593474
 size of scratch memory is             15166112
 max col of scratch BK array               1296
 max len of scratch array in speh3          155
 max len of scratch index in speh4           18
 max int batch size is                      520
 min int batch size is                       52
 fixed nKL is                                52
 max L of basis functions is                  2
 order of int derivative is                   0
 number of shells is                         19
 number of basis is                          66
 number of cartesian basis is                66
 number of contracted shell pairs           186
 number of primitive shell pairs           1094
 maxK2 (contraction) of shell pair           36
 max number of K2 of shell pair               1
 max number of CS2 of shell pair             12
 max number of PS2 of shell pair             72
 mem total for path MDJ                   14224
 -------------------------------------------------------
 Requested basis set is non-standard
 Compound shells will be simplified
 There are 26 shells and 62 basis functions
 A cutoff of  1.0D-14 yielded    345 shell pairs
 There are      2009 function pairs (      2286 Cartesian)
 Smallest overlap matrix eigenvalue = 1.03E-03

 Scale SEOQF with 1.000000e-01/1.000000e-01/1.000000e-01

 Standard Electronic Orientation quadrupole field applied
 Nucleus-field energy     =    -0.0000000082 hartrees
 Guess MOs from core Hamiltonian diagonalization
 A restricted hybrid HF-DFT SCF calculation will be
 performed using Geometric Direct Minimization
 Exchange:     0.2000 Hartree-Fock + 0.0800 Slater + 0.7200 B88
 Correlation:  0.1900 VWN1RPA + 0.8100 LYP
 Using Euler-Maclaurin-Lebedev (128,302) quadrature formula
 Dispersion:   Grimme D3
 SCF converges when RMS gradient is below 1.0E-08
 Maximum number of minimization steps = 200
 using 12 threads for integral computing 
 -------------------------------------------------------
 OpenMP BLAS3 based DFT computing Module                
 Release: version 1.0, May 2013, Q-Chem Inc. Pittsburgh 
 -------------------------------------------------------
 
   ------------------- Entering Geometric Direct Minimization ------------------
   GDM:         diagonal hessian shift is      0.000000000000000E+000
   GDM::PreWSS: input subspace size is                  1
   GDM::PreWSS: working subspace size set to            1
   GDM::PrEWSS: # of linearly dependent vectors =            0
   GDM::PrEWSS: Max dev from orthonormality =   1.110223024625157E-016
   GDM::BFGS:   lowest Hinv e-value     1.00000000000000     
   GDM::BFGS:   highest Hinv e-value    1.00000000000000     
   GDM::      : max scaling in EWCs is          1.41421356237309     
   GDM::      : max rotation in step is       -0.206547573441903     
   GDM::        grad.step =   -1.40816552325581     
   ------- Leaving GDM -- hopefully with a step in the right direction! --------
 
 ---------------------------------------
  Cycle       Energy        RMS Gradient
 ---------------------------------------
    1    -507.1086526953      1.89E+00  Gap = 0.00 eV  Descent step
 
   ------------------- Entering Geometric Direct Minimization ------------------
   GDM::trust : actual energy change is        -2.66046488390748     
   GDM::trust : predicted energy change was   -0.163350000000000     
   GDM::trust : updated trust radius is        0.330000000000000     
   GDM:         diagonal hessian shift is      0.000000000000000E+000
   GDM::PreWSS: input subspace size is                  2
   GDM::PreWSS: working subspace size set to            2
   GDM::PrEWSS: # of linearly dependent vectors =            0
   GDM::PrEWSS: Max dev from orthonormality =   4.433953204596719E-015
   GDM::BFGS:   lowest Hinv e-value    0.599193301717003     
   GDM::BFGS:   highest Hinv e-value    2.03495814597449     
   GDM::      : max scaling in EWCs is          1.41421356237309     
   GDM::      : max rotation in step is        0.114119040822300     
   GDM::        grad.step =   -1.12433091023771     
   ------- Leaving GDM -- hopefully with a step in the right direction! --------
 
    2    -509.7691175792      9.96E-01  Gap = 0.00 eV  Descent step
 
   ------------------- Entering Geometric Direct Minimization ------------------
   GDM::trust : actual energy change is        -2.15638545151785     
   GDM::trust : predicted energy change was   -0.144801086149504     
   GDM::trust : updated trust radius is        0.330000000000000     
   GDM:         diagonal hessian shift is      0.000000000000000E+000
   GDM::PreWSS: input subspace size is                  3
   GDM::PreWSS: working subspace size set to            3
   GDM::PrEWSS: # of linearly dependent vectors =            0
   GDM::PrEWSS: Max dev from orthonormality =   6.716849298982197E-014
   GDM::BFGS:   lowest Hinv e-value    0.408136383765562     
   GDM::BFGS:   highest Hinv e-value    2.15815015333284     
   GDM::      : max scaling in EWCs is          1.41421356237309     
   GDM::      : max rotation in step is        0.202658335077326     
   GDM::        grad.step =   -1.13582241316523     
   ------- Leaving GDM -- hopefully with a step in the right direction! --------
 
    3    -511.9255030307      1.49E+00  Gap = 0.00 eV  Descent step
 
   ------------------- Entering Geometric Direct Minimization ------------------
   GDM::trust : actual energy change is        -2.13785957176543     
   GDM::trust : predicted energy change was   -0.142735552820470     
   GDM::trust : updated trust radius is        0.330000000000000     
   GDM:         diagonal hessian shift is      0.000000000000000E+000
   GDM::PreWSS: input subspace size is                  4
   GDM::PreWSS: working subspace size set to            4
   GDM::PrEWSS: # of linearly dependent vectors =            0
   GDM::PrEWSS: Max dev from orthonormality =   8.045092370068119E-013
   GDM::BFGS:   lowest Hinv e-value    0.342986079519257     
   GDM::BFGS:   highest Hinv e-value    1.72160844857384     
   GDM::      : max scaling in EWCs is          1.41421356237309     
   GDM::      : max rotation in step is       -0.179575390018532     
   GDM::        grad.step =  -0.995691899527794     
   ------- Leaving GDM -- hopefully with a step in the right direction! --------
 
    4    -514.0633626025      1.16E+00  Gap = 0.00 eV  Descent step
 
   ------------------- Entering Geometric Direct Minimization ------------------
   GDM::trust : actual energy change is        -1.86268260858367     
   GDM::trust : predicted energy change was   -0.149812932985463     
   GDM::trust : updated trust radius is        0.330000000000000     
   GDM:         diagonal hessian shift is      0.000000000000000E+000
   GDM::PreWSS: input subspace size is                  5
   GDM::PreWSS: working subspace size set to            5
   GDM::PrEWSS: # of linearly dependent vectors =            0
   GDM::PrEWSS: Max dev from orthonormality =   1.387764902993638E-012
   GDM::BFGS:   lowest Hinv e-value    0.290102766741063     
   GDM::BFGS:   highest Hinv e-value    1.86580606313936     
   GDM::      : max scaling in EWCs is          2.82842712474619     
   GDM::      : max rotation in step is        0.352178569565713     
   GDM::        grad.step =  -0.941197444910086     
   ------- Leaving GDM -- hopefully with a step in the right direction! --------
 
    5    -515.9260452111      1.32E+00  Gap = 0.00 eV  Descent step
 
   ------------------- Entering Geometric Direct Minimization ------------------
   GDM::trust : actual energy change is        -1.53416403376752     
   GDM::trust : predicted energy change was   -0.161431353331843     
   GDM::trust : updated trust radius is        0.330000000000000     
   GDM:         diagonal hessian shift is      0.000000000000000E+000
   GDM::PreWSS: input subspace size is                  6
   GDM::PreWSS: working subspace size set to            6
   GDM::PrEWSS: # of linearly dependent vectors =            0
   GDM::PrEWSS: Max dev from orthonormality =   2.882312444274504E-013
   GDM::BFGS:   lowest Hinv e-value    0.304070975311024     
   GDM::BFGS:   highest Hinv e-value    1.90147159318020     
   GDM::      : max scaling in EWCs is          2.82842712474619     
   GDM::      : max rotation in step is        0.285742895412211     
   GDM::        grad.step =  -0.597847301430221     
   ------- Leaving GDM -- hopefully with a step in the right direction! --------
 
    6    -517.4602092448      7.59E-01  Gap = 0.00 eV  Descent step
 
   ------------------- Entering Geometric Direct Minimization ------------------
   GDM::trust : actual energy change is        -1.00550356720282     
   GDM::trust : predicted energy change was   -0.161297876053341     
   GDM::trust : updated trust radius is        0.330000000000000     
   GDM:         diagonal hessian shift is      0.000000000000000E+000
   GDM::PreWSS: input subspace size is                  7
   GDM::PreWSS: working subspace size set to            7
   GDM::PrEWSS: # of linearly dependent vectors =            0
   GDM::PrEWSS: Max dev from orthonormality =   5.964673199798654E-013
   GDM::BFGS:   lowest Hinv e-value    0.282720641301114     
   GDM::BFGS:   highest Hinv e-value    2.02985137642985     
   GDM::      : max scaling in EWCs is          2.82842712474619     
   GDM::      : max rotation in step is        0.328567372410937     
   GDM::        grad.step =  -0.382675649775004     
   ------- Leaving GDM -- hopefully with a step in the right direction! --------
 
    7    -518.4657128120      4.08E-01  Gap = 0.00 eV  Descent step
 
   ------------------- Entering Geometric Direct Minimization ------------------
   GDM::trust : actual energy change is       -0.613294627707546     
   GDM::trust : predicted energy change was   -0.156191032798594     
   GDM::trust : updated trust radius is        0.330000000000000     
   GDM:         diagonal hessian shift is      0.000000000000000E+000
   GDM::PreWSS: input subspace size is                  8
   GDM::PreWSS: working subspace size set to            8
   GDM::PrEWSS: # of linearly dependent vectors =            0
   GDM::PrEWSS: Max dev from orthonormality =   1.107867270144780E-012
   GDM::BFGS:   lowest Hinv e-value    0.268323513299429     
   GDM::BFGS:   highest Hinv e-value    2.62555888682361     
   GDM::      : max scaling in EWCs is          2.82842712474619     
   GDM::      : max rotation in step is        0.466212805401303     
   GDM::        grad.step =  -0.299084996338472     
   ------- Leaving GDM -- hopefully with a step in the right direction! --------
 
    8    -519.0790074397      5.31E-01  Gap = 0.00 eV  Descent step
 
   ------------------- Entering Geometric Direct Minimization ------------------
   GDM::trust : actual energy change is       -0.487686050573302     
   GDM::trust : predicted energy change was   -0.159549578527365     
   GDM::trust : updated trust radius is        0.330000000000000     
   GDM:         diagonal hessian shift is      0.000000000000000E+000
   GDM::PreWSS: input subspace size is                  9
   GDM::PreWSS: working subspace size set to            9
   GDM::PrEWSS: # of linearly dependent vectors =            0
   GDM::PrEWSS: Max dev from orthonormality =   9.752372520654973E-013
   GDM::BFGS:   lowest Hinv e-value    0.269039134856019     
   GDM::BFGS:   highest Hinv e-value    3.98124104372547     
   GDM::      : max scaling in EWCs is          2.82842712474619     
   GDM::      : max rotation in step is       -0.152232148002874     
   GDM::        grad.step =  -0.142787432172301     
   ------- Leaving GDM -- hopefully with a step in the right direction! --------
 
    9    -519.5666934903      1.40E-01  Gap = 0.00 eV  Descent step
 
   ------------------- Entering Geometric Direct Minimization ------------------
   GDM::trust : actual energy change is       -9.278156033144569E-002
   GDM::trust : predicted energy change was   -0.166852920529814     
   GDM::trust : updated trust radius is        0.330000000000000     
   GDM:         diagonal hessian shift is      0.000000000000000E+000
   GDM::PreWSS: input subspace size is                 10
   GDM::PreWSS: working subspace size set to           10
   GDM::PrEWSS: # of linearly dependent vectors =            0
   GDM::PrEWSS: Max dev from orthonormality =   8.691450337217077E-013
   GDM::BFGS:   lowest Hinv e-value    0.259515516035749     
   GDM::BFGS:   highest Hinv e-value    3.55379525616873     
   GDM::      : max scaling in EWCs is          2.82842712474619     
   GDM::      : max rotation in step is        0.435126765102443     
   GDM::        grad.step =  -0.196224644161596     
   ------- Leaving GDM -- hopefully with a step in the right direction! --------
 
   10    -519.6594750506      4.58E-01  Gap = 0.00 eV  Descent step
 
   ------------------- Entering Geometric Direct Minimization ------------------
   GDM::trust : actual energy change is        0.169727791487276     
   GDM::trust : predicted energy change was   -0.289879397840441     
   GDM::trust : updated trust radius is        0.108900000000000     
   GDM::search:  On step            1 .  The current bracket is:
       left   : x =  0.0000E+00, e =      -519.6594750506, g = -0.3985E+00
       current: x =  0.4924E+00, e =      -519.4897472592, g =  0.6667E+00
       right  : x =  0.1000E+04, e =      1000.0000000000, g =  0.1000E+04
       next   : x =  0.1320E+00
   GDM::      : max rotation in step is        0.116658049421124     
   ------- Leaving GDM -- hopefully with a step in the right direction! --------
 
   11    -519.4897472592      8.08E-02  Gap = 0.00 eV  Line search: overstep
 
   ------------------- Entering Geometric Direct Minimization ------------------
   GDM::trust : actual energy change is       -6.432158908785368E-002
   GDM::trust : predicted energy change was   -0.289879397840441     
   GDM::trust : updated trust radius is        0.108900000000000     
   GDM:         diagonal hessian shift is      0.000000000000000E+000
   GDM::PreWSS: input subspace size is                 11
   GDM::PreWSS: working subspace size set to           11
   GDM::PrEWSS: # of linearly dependent vectors =            0
   GDM::PrEWSS: Max dev from orthonormality =   7.511560817796692E-013
   GDM::BFGS:   lowest Hinv e-value    0.201450176056728     
   GDM::BFGS:   highest Hinv e-value    3.88574127091578     
   GDM::      : max scaling in EWCs is          2.82842712474619     
   GDM::      : max rotation in step is       -0.172826480109856     
   GDM::        grad.step =  -1.533161184618096E-002
   ------- Leaving GDM -- hopefully with a step in the right direction! --------
 
   12    -519.7237966397      8.85E-02  Gap = 0.00 eV  Descent step
 
   ------------------- Entering Geometric Direct Minimization ------------------
   GDM::trust : actual energy change is        6.668222640200838E-003
   GDM::trust : predicted energy change was   -2.811134518360161E-002
   GDM::trust : updated trust radius is        0.108900000000000     
   GDM::search:  On step            1 .  The current bracket is:
       left   : x =  0.0000E+00, e =      -519.7237966397, g = -0.7447E-01
       current: x =  0.2059E+00, e =      -519.7171284171, g =  0.1075E+00
       right  : x =  0.1000E+04, e =      1000.0000000000, g =  0.1000E+04
       next   : x =  0.7174E-01
   GDM::      : max rotation in step is       -6.022110101387899E-002
   ------- Leaving GDM -- hopefully with a step in the right direction! --------
 
   13    -519.7171284171      1.88E-02  Gap = 0.00 eV  Line search: overstep
 
   ------------------- Entering Geometric Direct Minimization ------------------
   GDM::trust : actual energy change is       -6.242561113481315E-003
   GDM::trust : predicted energy change was   -2.811134518360161E-002
   GDM::trust : updated trust radius is        0.108900000000000     
   GDM:         diagonal hessian shift is      0.000000000000000E+000
   GDM::PreWSS: input subspace size is                 12
   GDM::PreWSS: working subspace size set to           12
   GDM::PrEWSS: # of linearly dependent vectors =            0
   GDM::PrEWSS: Max dev from orthonormality =   9.407960521734537E-013
   GDM::BFGS:   lowest Hinv e-value    0.197392238185875     
   GDM::BFGS:   highest Hinv e-value    3.96553869195673     
   GDM::trust : dogleg step length is          0.108900000000000     
   GDM::      : max scaling in EWCs is          2.82842712474619     
   GDM::      : max rotation in step is       -0.112255597331363     
   GDM::        grad.step =  -7.946156575347838E-003
   ------- Leaving GDM -- hopefully with a step in the right direction! --------
 
   14    -519.7300392008      2.98E-02  Gap = 0.00 eV  Dog-leg BFGS step
 
   ------------------- Entering Geometric Direct Minimization ------------------
   GDM::trust : actual energy change is       -5.536007556543154E-003
   GDM::trust : predicted energy change was   -1.186769927107914E-002
   GDM::trust : updated trust radius is        0.108900000000000     
   GDM:         diagonal hessian shift is      0.000000000000000E+000
   GDM::PreWSS: input subspace size is                 13
   GDM::PreWSS: working subspace size set to           13
   GDM::PrEWSS: # of linearly dependent vectors =            0
   GDM::PrEWSS: Max dev from orthonormality =   1.430337792651670E-011
   GDM::BFGS:   lowest Hinv e-value    0.209448023978349     
   GDM::BFGS:   highest Hinv e-value    3.48497521781313     
   GDM::      : max scaling in EWCs is          2.82842712474619     
   GDM::      : max rotation in step is       -8.782380295038857E-002
   GDM::        grad.step =  -3.546044930584121E-003
   ------- Leaving GDM -- hopefully with a step in the right direction! --------
 
   15    -519.7355752084      2.82E-02  Gap = 0.00 eV  Normal BFGS step
 
   ------------------- Entering Geometric Direct Minimization ------------------
   GDM::trust : actual energy change is        2.196467676185421E-006
   GDM::trust : predicted energy change was   -5.319067395876182E-003
   GDM::trust : updated trust radius is        0.108900000000000     
   GDM::search:  On step            1 .  The current bracket is:
       left   : x =  0.0000E+00, e =      -519.7355752084, g = -0.2913E-01
       current: x =  0.1217E+00, e =      -519.7355730119, g =  0.2802E-01
       right  : x =  0.1000E+04, e =      1000.0000000000, g =  0.1000E+04
       next   : x =  0.6082E-01
   GDM::      : max rotation in step is       -4.388471869325690E-002
   ------- Leaving GDM -- hopefully with a step in the right direction! --------
 
   16    -519.7355730119      2.30E-03  Gap = 0.00 eV  Line search: overstep
 
   ------------------- Entering Geometric Direct Minimization ------------------
   GDM::trust : actual energy change is       -1.737199233957654E-003
   GDM::trust : predicted energy change was   -5.319067395876182E-003
   GDM::trust : updated trust radius is        0.108900000000000     
   GDM:         diagonal hessian shift is      0.000000000000000E+000
   GDM::PreWSS: input subspace size is                 14
   GDM::PreWSS: working subspace size set to           14
   GDM::PrEWSS: # of linearly dependent vectors =            0
   GDM::PrEWSS: Max dev from orthonormality =   1.024549195483004E-011
   GDM::BFGS:   lowest Hinv e-value    0.222956639960586     
   GDM::BFGS:   highest Hinv e-value    2.37049347342999     
   GDM::      : max scaling in EWCs is          2.82842712474619     
   GDM::      : max rotation in step is       -3.284949882502369E-002
   GDM::        grad.step =  -1.168364657653309E-003
   ------- Leaving GDM -- hopefully with a step in the right direction! --------
 
   17    -519.7373124076      1.11E-02  Gap = 0.00 eV  Normal BFGS step
 
   ------------------- Entering Geometric Direct Minimization ------------------
   GDM::trust : actual energy change is       -4.564408643545903E-004
   GDM::trust : predicted energy change was   -1.752546986479963E-003
   GDM::trust : updated trust radius is        0.330000000000000     
   GDM:         diagonal hessian shift is      0.000000000000000E+000
   GDM::PreWSS: input subspace size is                 15
   GDM::PreWSS: working subspace size set to           15
   GDM::PrEWSS: # of linearly dependent vectors =            0
   GDM::PrEWSS: Max dev from orthonormality =   1.060543319830742E-011
   GDM::BFGS:   lowest Hinv e-value    0.178599530777221     
   GDM::BFGS:   highest Hinv e-value    2.32617302113874     
   GDM::      : max scaling in EWCs is          2.82842712474619     
   GDM::      : max rotation in step is        6.558684234332583E-003
   GDM::        grad.step =  -3.846404187139557E-004
   ------- Leaving GDM -- hopefully with a step in the right direction! --------
 
   18    -519.7377688485      1.30E-02  Gap = 0.00 eV  Normal BFGS step
 
   ------------------- Entering Geometric Direct Minimization ------------------
   GDM::trust : actual energy change is       -3.560681982435199E-004
   GDM::trust : predicted energy change was   -5.769606280709335E-004
   GDM::trust : updated trust radius is        0.330000000000000     
   GDM:         diagonal hessian shift is      0.000000000000000E+000
   GDM::PreWSS: input subspace size is                 16
   GDM::PreWSS: working subspace size set to           16
   GDM::PrEWSS: # of linearly dependent vectors =            0
   GDM::PrEWSS: Max dev from orthonormality =   4.080026594355246E-011
   GDM::BFGS:   lowest Hinv e-value    0.204687993532089     
   GDM::BFGS:   highest Hinv e-value    2.26504056118336     
   GDM::      : max scaling in EWCs is          2.82842712474619     
   GDM::      : max rotation in step is       -5.035753961027507E-003
   GDM::        grad.step =  -3.606288264161931E-005
   ------- Leaving GDM -- hopefully with a step in the right direction! --------
 
   19    -519.7381249167      2.08E-03  Gap = 0.00 eV  Normal BFGS step
 
   ------------------- Entering Geometric Direct Minimization ------------------
   GDM::trust : actual energy change is       -1.615720532299747E-005
   GDM::trust : predicted energy change was   -5.409432396242895E-005
   GDM::trust : updated trust radius is        0.330000000000000     
   GDM:         diagonal hessian shift is      0.000000000000000E+000
   GDM::PreWSS: input subspace size is                 17
   GDM::PreWSS: working subspace size set to           17
   GDM::PrEWSS: # of linearly dependent vectors =            1
   GDM::PrEWSS: Max dev from orthonormality =   4.229453731685595E-010
   GDM::BFGS:   lowest Hinv e-value    0.199929402354027     
   GDM::BFGS:   highest Hinv e-value    2.06833735511727     
   GDM::      : max scaling in EWCs is          2.82842712474619     
   GDM::      : max rotation in step is       -2.792208977258211E-003
   GDM::        grad.step =  -1.180060990220324E-005
   ------- Leaving GDM -- hopefully with a step in the right direction! --------
 
   20    -519.7381410739      1.34E-03  Gap = 0.00 eV  Normal BFGS step
 
   ------------------- Entering Geometric Direct Minimization ------------------
   GDM::trust : actual energy change is       -1.047051489422302E-005
   GDM::trust : predicted energy change was   -1.770091485330487E-005
   GDM::trust : updated trust radius is        0.330000000000000     
   GDM:         diagonal hessian shift is      0.000000000000000E+000
   GDM::PreWSS: input subspace size is                 18
   GDM::PreWSS: working subspace size set to           18
   GDM::PrEWSS: # of linearly dependent vectors =            2
   GDM::PrEWSS: Max dev from orthonormality =   3.142565374592010E-010
   GDM::BFGS:   lowest Hinv e-value    0.201136174834636     
   GDM::BFGS:   highest Hinv e-value    2.05276833002779     
   GDM::      : max scaling in EWCs is          2.82842712474619     
   GDM::      : max rotation in step is       -4.165930317679098E-004
   GDM::        grad.step =  -2.207089620364278E-006
   ------- Leaving GDM -- hopefully with a step in the right direction! --------
 
   21    -519.7381515444      3.78E-04  Gap = 0.00 eV  Normal BFGS step
 
   ------------------- Entering Geometric Direct Minimization ------------------
   GDM::trust : actual energy change is       -6.019614602337242E-007
   GDM::trust : predicted energy change was   -3.310634430546417E-006
   GDM::trust : updated trust radius is        0.330000000000000     
   GDM:         diagonal hessian shift is      0.000000000000000E+000
   GDM::PreWSS: input subspace size is                 19
   GDM::PreWSS: working subspace size set to           18
   GDM::PrEWSS: # of linearly dependent vectors =            2
   GDM::PrEWSS: Max dev from orthonormality =   1.429703577748853E-010
   GDM::BFGS:   lowest Hinv e-value    0.191777258541373     
   GDM::BFGS:   highest Hinv e-value    2.09685277476913     
   GDM::      : max scaling in EWCs is          2.82842712474619     
   GDM::      : max rotation in step is       -4.238660826780698E-004
   GDM::        grad.step =  -8.870660581742091E-007
   ------- Leaving GDM -- hopefully with a step in the right direction! --------
 
   22    -519.7381521464      4.93E-04  Gap = 0.00 eV  Normal BFGS step
 
   ------------------- Entering Geometric Direct Minimization ------------------
   GDM::trust : actual energy change is       -8.947779406298650E-007
   GDM::trust : predicted energy change was   -1.330599087261313E-006
   GDM::trust : updated trust radius is        0.330000000000000     
   GDM:         diagonal hessian shift is      0.000000000000000E+000
   GDM::PreWSS: input subspace size is                 19
   GDM::PreWSS: working subspace size set to           18
   GDM::PrEWSS: # of linearly dependent vectors =            1
   GDM::PrEWSS: Max dev from orthonormality =   1.845665703603672E-010
   GDM::BFGS:   lowest Hinv e-value    0.194613337587192     
   GDM::BFGS:   highest Hinv e-value    1.85292129714357     
   GDM::      : max scaling in EWCs is          2.82842712474619     
   GDM::      : max rotation in step is        6.146755849397589E-005
   GDM::        grad.step =  -7.963792345811028E-008
   ------- Leaving GDM -- hopefully with a step in the right direction! --------
 
   23    -519.7381530412      1.11E-04  Gap = 0.00 eV  Normal BFGS step
 
   ------------------- Entering Geometric Direct Minimization ------------------
   GDM::trust : actual energy change is       -6.681943887087982E-008
   GDM::trust : predicted energy change was   -1.194568851871654E-007
   GDM::trust : updated trust radius is        0.330000000000000     
   GDM:         diagonal hessian shift is      0.000000000000000E+000
   GDM::PreWSS: input subspace size is                 19
   GDM::PreWSS: working subspace size set to           18
   GDM::PrEWSS: # of linearly dependent vectors =            0
   GDM::PrEWSS: Max dev from orthonormality =   1.632533518092227E-010
   GDM::BFGS:   lowest Hinv e-value    0.185192104960819     
   GDM::BFGS:   highest Hinv e-value    1.73293560611486     
   GDM::      : max scaling in EWCs is          2.82842712474619     
   GDM::      : max rotation in step is       -5.476025569964680E-005
   GDM::        grad.step =  -2.480718052188863E-008
   ------- Leaving GDM -- hopefully with a step in the right direction! --------
 
   24    -519.7381531080      8.88E-05  Gap = 0.00 eV  Normal BFGS step
 
   ------------------- Entering Geometric Direct Minimization ------------------
   GDM::trust : actual energy change is       -3.003037818416487E-008
   GDM::trust : predicted energy change was   -3.721077078283295E-008
   GDM::trust : updated trust radius is        0.330000000000000     
   GDM:         diagonal hessian shift is      0.000000000000000E+000
   GDM::PreWSS: input subspace size is                 19
   GDM::PreWSS: working subspace size set to           18
   GDM::PrEWSS: # of linearly dependent vectors =            0
   GDM::PrEWSS: Max dev from orthonormality =   1.764668342008058E-010
   GDM::BFGS:   lowest Hinv e-value    0.189753784803810     
   GDM::BFGS:   highest Hinv e-value    1.76986811889472     
   GDM::      : max scaling in EWCs is          2.82842712474619     
   GDM::      : max rotation in step is        4.918278520269917E-005
   GDM::        grad.step =  -6.945366517173774E-009
   ------- Leaving GDM -- hopefully with a step in the right direction! --------
 
   25    -519.7381531380      4.13E-05  Gap = 0.00 eV  Normal BFGS step
 
   ------------------- Entering Geometric Direct Minimization ------------------
   GDM::trust : actual energy change is       -6.372260941134300E-009
   GDM::trust : predicted energy change was   -1.041804977576066E-008
   GDM::trust : updated trust radius is        0.330000000000000     
   GDM:         diagonal hessian shift is      0.000000000000000E+000
   GDM::PreWSS: input subspace size is                 19
   GDM::PreWSS: working subspace size set to           18
   GDM::PrEWSS: # of linearly dependent vectors =            0
   GDM::PrEWSS: Max dev from orthonormality =   3.462239175910931E-011
   GDM::BFGS:   lowest Hinv e-value    0.191227830418354     
   GDM::BFGS:   highest Hinv e-value    1.70930751070968     
   GDM::      : max scaling in EWCs is          2.82842712474619     
   GDM::      : max rotation in step is        1.097457952034973E-005
   GDM::        grad.step =  -8.189615817262401E-010
   ------- Leaving GDM -- hopefully with a step in the right direction! --------
 
   26    -519.7381531444      1.37E-05  Gap = 0.00 eV  Normal BFGS step
 
   ------------------- Entering Geometric Direct Minimization ------------------
   GDM::trust : actual energy change is       -6.239133654162288E-010
   GDM::trust : predicted energy change was   -1.228442372589360E-009
   GDM::trust : updated trust radius is        0.330000000000000     
   GDM:         diagonal hessian shift is      0.000000000000000E+000
   GDM::PreWSS: input subspace size is                 19
   GDM::PreWSS: working subspace size set to           18
   GDM::PrEWSS: # of linearly dependent vectors =            0
   GDM::PrEWSS: Max dev from orthonormality =   2.866253068223301E-011
   GDM::BFGS:   lowest Hinv e-value    0.189085360520989     
   GDM::BFGS:   highest Hinv e-value    1.71410676118467     
   GDM::      : max scaling in EWCs is          2.82842712474619     
   GDM::      : max rotation in step is       -3.849853213978951E-006
   GDM::        grad.step =  -1.384281968679773E-010
   ------- Leaving GDM -- hopefully with a step in the right direction! --------
 
   27    -519.7381531450      5.24E-06  Gap = 0.00 eV  Normal BFGS step
 
   ------------------- Entering Geometric Direct Minimization ------------------
   GDM::trust : actual energy change is       -1.065245669451542E-010
   GDM::trust : predicted energy change was   -2.076422953019661E-010
   GDM::trust : updated trust radius is        0.330000000000000     
   GDM:         diagonal hessian shift is      0.000000000000000E+000
   GDM::PreWSS: input subspace size is                 19
   GDM::PreWSS: working subspace size set to           15
   GDM::PrEWSS: # of linearly dependent vectors =            0
   GDM::PrEWSS: Max dev from orthonormality =   4.619707394404315E-012
   GDM::BFGS:   lowest Hinv e-value    0.188202194731645     
   GDM::BFGS:   highest Hinv e-value    1.71837369304376     
   GDM::      : max scaling in EWCs is          2.82842712474619     
   GDM::      : max rotation in step is        3.212386053064729E-006
   GDM::        grad.step =  -1.252613794534329E-011
   ------- Leaving GDM -- hopefully with a step in the right direction! --------
 
   28    -519.7381531451      1.11E-06  Gap = 980.16 eV  Normal BFGS step
 
   ------------------- Entering Geometric Direct Minimization ------------------
   GDM::trust : actual energy change is       -1.239186531165615E-011
   GDM::trust : predicted energy change was   -1.878920691801494E-011
   GDM::trust : updated trust radius is        0.330000000000000     
   GDM:         diagonal hessian shift is      0.000000000000000E+000
   GDM::PreWSS: input subspace size is                 16
   GDM::PreWSS: working subspace size set to           13
   GDM::PrEWSS: # of linearly dependent vectors =            0
   GDM::PrEWSS: Max dev from orthonormality =   5.280581527600248E-012
   GDM::BFGS:   lowest Hinv e-value    0.236544478859544     
   GDM::BFGS:   highest Hinv e-value    2.09288639216532     
   GDM::      : max scaling in EWCs is          2.82842712474619     
   GDM::      : max rotation in step is       -3.418034859096077E-007
   GDM::        grad.step =  -2.816835786463029E-013
   ------- Leaving GDM -- hopefully with a step in the right direction! --------
 
   29    -519.7381531451      2.00E-07  Gap = 980.16 eV  Normal BFGS step
 
   ------------------- Entering Geometric Direct Minimization ------------------
   GDM::trust : actual energy change is        5.684341886080801E-013
   GDM::trust : predicted energy change was   -4.225253679694542E-013
   GDM::trust : updated trust radius is        0.108900000000000     
   GDM::WARNING energy changes are now smaller than effective accuracy.
   GDM::        calculation will continue, but THRESH should be increased
   GDM::        or SCF_CONVERGENCE decreased.
   GDM::        effective_thresh =   4.229453731685595E-010
   GDM:         diagonal hessian shift is      0.000000000000000E+000
   GDM::PreWSS: input subspace size is                 14
   GDM::PreWSS: working subspace size set to           14
   GDM::PrEWSS: # of linearly dependent vectors =            1
   GDM::PrEWSS: Max dev from orthonormality =   2.613395611028579E-012
   GDM::BFGS:   lowest Hinv e-value    0.196238731037680     
   GDM::BFGS:   highest Hinv e-value    1.77862813566662     
   GDM::      : max scaling in EWCs is          2.82842712474619     
   GDM::      : max rotation in step is       -2.195270932115140E-007
   GDM::        grad.step =  -2.059625754135369E-013
   ------- Leaving GDM -- hopefully with a step in the right direction! --------
 
   30    -519.7381531451      3.21E-07  Gap = 980.16 eV  Normal BFGS step
 
   ------------------- Entering Geometric Direct Minimization ------------------
   GDM::trust : actual energy change is        1.136868377216160E-013
   GDM::trust : predicted energy change was   -3.089438631203053E-013
   GDM::trust : updated trust radius is        0.108900000000000     
   GDM::WARNING energy changes are now smaller than effective accuracy.
   GDM::        calculation will continue, but THRESH should be increased
   GDM::        or SCF_CONVERGENCE decreased.
   GDM::        effective_thresh =   4.229453731685595E-010
   GDM:         diagonal hessian shift is      0.000000000000000E+000
   GDM::PreWSS: input subspace size is                 15
   GDM::PreWSS: working subspace size set to           13
   GDM::PrEWSS: # of linearly dependent vectors =            0
   GDM::PrEWSS: Max dev from orthonormality =   7.263500564902436E-012
   GDM::BFGS:   lowest Hinv e-value    0.211412384307432     
   GDM::BFGS:   highest Hinv e-value    2.56623773650386     
   GDM::      : max scaling in EWCs is          2.82842712474619     
   GDM::      : max rotation in step is        9.862064931599548E-008
   GDM::        grad.step =  -3.320380955037606E-014
   ------- Leaving GDM -- hopefully with a step in the right direction! --------
 
   31    -519.7381531451      1.04E-07  Gap = 980.16 eV  Normal BFGS step
 
   ------------------- Entering Geometric Direct Minimization ------------------
   GDM::trust : actual energy change is       -3.410605131648481E-013
   GDM::trust : predicted energy change was   -4.980571432556411E-014
   GDM::trust : updated trust radius is        0.330000000000000     
   GDM:         diagonal hessian shift is      0.000000000000000E+000
   GDM::PreWSS: input subspace size is                 14
   GDM::PreWSS: working subspace size set to           14
   GDM::PrEWSS: # of linearly dependent vectors =            1
   GDM::PrEWSS: Max dev from orthonormality =   3.393888295399883E-011
   GDM::BFGS:   lowest Hinv e-value    0.193888453860696     
   GDM::BFGS:   highest Hinv e-value    1.95420540139108     
   GDM::      : max scaling in EWCs is          2.82842712474619     
   GDM::      : max rotation in step is        6.338197684732931E-008
   GDM::        grad.step =  -1.466182017585201E-014
   ------- Leaving GDM -- hopefully with a step in the right direction! --------
 
   32    -519.7381531451      5.02E-08  Gap = 980.16 eV  Normal BFGS step
 
   ------------------- Entering Geometric Direct Minimization ------------------
   GDM::trust : actual energy change is       -3.410605131648481E-013
   GDM::trust : predicted energy change was   -2.199273026377802E-014
   GDM::trust : updated trust radius is        0.330000000000000     
   GDM:         diagonal hessian shift is      0.000000000000000E+000
   GDM::PreWSS: input subspace size is                 15
   GDM::PreWSS: working subspace size set to           15
   GDM::PrEWSS: # of linearly dependent vectors =            2
   GDM::PrEWSS: Max dev from orthonormality =   5.223002585985626E-012
   GDM::BFGS:   lowest Hinv e-value    0.192132173635032     
   GDM::BFGS:   highest Hinv e-value    1.46064362334926     
   GDM::      : max scaling in EWCs is          2.82842712474619     
   GDM::      : max rotation in step is       -2.176463840973784E-008
   GDM::        grad.step =  -5.517183135581867E-015
   ------- Leaving GDM -- hopefully with a step in the right direction! --------
 
   33    -519.7381531451      2.25E-08  Gap = 980.16 eV  Normal BFGS step
 
   ------------------- Entering Geometric Direct Minimization ------------------
   GDM::trust : actual energy change is        1.136868377216160E-013
   GDM::trust : predicted energy change was   -8.275774703372802E-015
   GDM::trust : updated trust radius is        0.108900000000000     
   GDM::WARNING energy changes are now smaller than effective accuracy.
   GDM::        calculation will continue, but THRESH should be increased
   GDM::        or SCF_CONVERGENCE decreased.
   GDM::        effective_thresh =   4.229453731685595E-010
   GDM:         diagonal hessian shift is      0.000000000000000E+000
   GDM::PreWSS: input subspace size is                 16
   GDM::PreWSS: working subspace size set to           12
   GDM::PrEWSS: # of linearly dependent vectors =            0
   GDM::PrEWSS: Max dev from orthonormality =   4.378750834144185E-012
   GDM::BFGS:   lowest Hinv e-value    0.189473669247400     
   GDM::BFGS:   highest Hinv e-value    1.77803701548723     
   GDM::      : max scaling in EWCs is          2.82842712474619     
   GDM::      : max rotation in step is        3.491266505744964E-009
   GDM::        grad.step =  -5.819365106025832E-017
   ------- Leaving GDM -- hopefully with a step in the right direction! --------
 
   34    -519.7381531451      3.29E-09 Convergence criterion met
 ---------------------------------------
 One-Electron    Energy =  -939.2931242663
 Total Coulomb   Energy =   355.2928749189
 Alpha Exchange  Energy =    -3.8686835105
 Beta  Exchange  Energy =    -3.8686835105
 DFT   Exchange  Energy =   -30.8762728971
 DFT Correlation Energy =    -1.6952521655
 Nuclear Repu.   Energy =   104.5709882859
 Nuclear Attr.   Energy = -1436.5005150939
 Kinetic         Energy =   497.2073908276
 SCF time:  CPU 78.64 s  wall 11.79 s
 SCF   energy in the final basis set = -519.7381531451
 Total energy in the final basis set = -519.7381531451
 
 --------------------------------------------------------------
 
                    Orbital Energies (a.u.)
 --------------------------------------------------------------
 
 Alpha MOs
 -- Occupied --
-88.833 -19.154  -7.930  -5.891  -5.886  -5.886  -2.096  -1.358
 -1.286  -1.286  -0.892  -0.643  -0.383  -0.383  -0.373  -0.297
 -0.297  -0.193
 -- Virtual --
 -0.141  -0.134  -0.134  -0.024  -0.024   0.003   0.003   0.018
  0.026   0.087   0.089   0.089   0.094   0.094   0.109   0.168
  0.168   0.204   0.218   0.218   0.243   0.295   0.305   0.305
  0.520   0.534   0.534   0.623   0.772   0.772   0.860   0.860
  0.914   0.983   1.183   1.183   1.252   1.711   1.795   1.795
  1.844   1.844   2.010  15.144
 --------------------------------------------------------------
 
          Ground-State Mulliken Net Atomic Charges

     Atom                 Charge (a.u.)
  ----------------------------------------
      1 Zr                    0.744713
      2 O                    -0.472102
      3 S                    -0.272611
  ----------------------------------------
  Sum of atomic charges =     0.000000

 -----------------------------------------------------------------
                    Cartesian Multipole Moments
 -----------------------------------------------------------------
    Charge (ESU x 10^10)
                 0.0000
    Dipole Moment (Debye)
         X       0.0000      Y       0.0000      Z      -0.0506
       Tot       0.0506
    Quadrupole Moments (Debye-Ang)
        XX     -38.1456     XY       0.0000     YY     -38.1456
        XZ       0.0000     YZ       0.0000     ZZ     -57.0507
    Octopole Moments (Debye-Ang^2)
       XXX       0.0000    XXY       0.0000    XYY       0.0000
       YYY       0.0000    XXZ      14.0120    XYZ       0.0000
       YYZ      14.0120    XZZ       0.0000    YZZ       0.0000
       ZZZ      45.5107
    Hexadecapole Moments (Debye-Ang^3)
      XXXX     -60.5664   XXXY       0.0000   XXYY     -20.1888
      XYYY       0.0000   YYYY     -60.5664   XXXZ       0.0000
      XXYZ       0.0000   XYYZ       0.0000   YYYZ       0.0000
      XXZZ     -86.0552   XYZZ       0.0000   YYZZ     -86.0552
      XZZZ       0.0000   YZZZ       0.0000   ZZZZ    -523.7330
 -----------------------------------------------------------------
Archival summary:
1\1\hpc0241\SP\ProcedureUnspecified\BasisUnspecified\r111(\liqiuy\TueJan2114:21:562020TueJan2114:21:562020\0\\#,ProcedureUnspecified,BasisUnspecified,\\28,1\Zr\S,1,1.78127\O,1,1.78128,2,180\\\@

 Total job time:  14.06s(wall), 83.29s(cpu) 
 Tue Jan 21 14:21:56 2020

        *************************************************************
        *                                                           *
        *  Thank you very much for using Q-Chem.  Have a nice day.  *
        *                                                           *
        *************************************************************


0 sent ACK to 0 
now end server 0 ... 
cleanup process ... done

Running Job 2 of 2 ZrOx.in
qchem ZrOx.in_10155.1 /tmp/5790264.priya/ZrOx.save/ 1
/usr/usc/qchem/4.4/bin/mpi/mpirun_qchem -machinefile /usr/usc/qchem/4.4/bin/mpi/machines -np 1 /usr/usc/qchem/4.4/exe/qcprog.exe ZrOx.in_10155.1 /tmp/5790264.priya/ZrOx.save/

Process 0 of 1 is on hpc0241.hpcc.usc.edu - thread support 0
initial socket setup ...start
initial socket setup ...done 
now start server 0 ... 
Check license passed

                  Welcome to Q-Chem
     A Quantum Leap Into The Future Of Chemistry


 Q-Chem 4.4, Q-Chem, Inc., Pleasanton, CA (2016)

 Y. Shao,  Z. Gan,  E. Epifanovsky,  A. T. B. Gilbert,  M. Wormit,  
 J. Kussmann,  A. W. Lange,  A. Behn,  J. Deng,  X. Feng,  D. Ghosh,  
 M. Goldey,  P. R. Horn,  L. D. Jacobson,  I. Kaliman,  F.Rob,  
 R. Z. Khaliullin,  T. Kus,  A. Landau,  J. Liu,  E. I. Proynov,  Y. M. Rhee,  
 R. M. Richard,  M. A. Rohrdanz,  R. P. Steele,  E. J. Sundstrom,  
 H. L. Woodcock III,  P. M. Zimmerman,  D. Zuev,  B. Albrecht,  E. Alguire,  
 B. Austin,  S. A. Baeppler,  G. J. O. Beran,  Y. A. Bernard,  E. Berquist,  
 K. Brandhorst,  K. B. Bravaya,  S. T. Brown,  D. Casanova,  C.-M. Chang,  
 Y. Chen,  S. H. Chien,  K. D. Closser,  M. P. Coons,  D. L. Crittenden,  
 S. Dasgupta,  M. Diedenhofen,  R. A. DiStasio Jr.,  H. Do,  A. D. Dutoi,  
 R. G. Edgar,  P.-T. Fang,  S. Fatehi,  Q. Feng,  L. Fusti-Molnar,  
 A. Ghysels,  A. Golubeva-Zadorozhnaya,  J. Gomes,  A. Gunina,  
 M. W. D. Hanson-Heine,  P. H. P. Harbach,  A. W. Hauser,  E. G. Hohenstein,  
 Z. C. Holden,  K. Hui,  T.-C. Jagau,  H. Ji,  B. Kaduk,  K. Khistyaev,  
 Jaehoon Kim,  Jihan Kim,  R. A. King,  P. Klunzinger,  D. Kosenkov,  
 T. Kowalczyk,  C. M. Krauter,  A. Kunitsa,  K. U. Lao,  A. Laurent,  
 K. V. Lawler,  D. Lefrancois,  S. Lehtola,  S. V. Levchenko,  C. Y. Lin,  
 Y.-S. Lin,  F. Liu,  E. Livshits,  R. C. Lochan,  A. Luenser,  P. Manohar,  
 S. F. Manzer,  S.-P. Mao,  Y. Mao,  N. Mardirossian,  A. V. Marenich,  
 L. A. Martinez-Martinez,  S. A. Maurer,  N. J. Mayhall,  J.-M. Mewes,  
 A. F. Morrison,  K. Nanda,  C. M. Oana,  R. Olivares-Amaya,  D. P. O'Neill,  
 J. A. Parkhill,  T. M. Perrine,  R. Peverati,  P. A. Pieniazek,  F. Plasser,  
 A. Prociuk,  D. R. Rehn,  E. Rosta,  N. J. Russ,  N. Sergueev,  
 S. M. Sharada,  S. Sharma,  D. W. Small,  A. Sodt,  T. Stauch,  T. Stein,  
 D. Stuck,  Y.-C. Su,  A. J. W. Thom,  T. Tsuchimochi,  L. Vogt,  O. Vydrov,  
 T. Wang,  M. A. Watson,  J. Wenzel,  A. White,  C. F. Williams,  
 V. Vanovschi,  S. Yeganeh,  S. R. Yost,  Z.-Q. You,  I. Y. Zhang,  X. Zhang,  
 Y. Zhao,  B. R. Brooks,  G. K. L. Chan,  D. M. Chipman,  C. J. Cramer,  
 W. A. Goddard III,  M. S. Gordon,  W. J. Hehre,  A. Klamt,  
 H. F. Schaefer III,  M. W. Schmidt,  C. D. Sherrill,  D. G. Truhlar,  
 A. Warshel,  X. Xu,  A. Aspuru-Guzik,  R. Baer,  A. T. Bell,  N. A. Besley,  
 J.-D. Chai,  A. Dreuw,  B. D. Dunietz,  T. R. Furlani,  S. R. Gwaltney,  
 C.-P. Hsu,  Y. Jung,  J. Kong,  D. S. Lambrecht,  W. Liang,  C. Ochsenfeld,  
 V. A. Rassolov,  L. V. Slipchenko,  J. E. Subotnik,  T. Van Voorhis,  
 J. M. Herbert,  A. I. Krylov,  P. M. W. Gill,  M. Head-Gordon

 Contributors to earlier versions of Q-Chem not listed above: 
 R. D. Adamson,  J. Baker,  E. F. C. Byrd,  A. K. Chakraborty,  C.-L. Cheng,  
 H. Dachsel,  R. J. Doerksen,  G. Hawkins,  A. Heyden,  S. Hirata,  
 G. Kedziora,  F. J. Keil,  C. Kelley,  P. P. Korambath,  W. Kurlancheek,  
 A. M. Lee,  M. S. Lee,  D. Liotard,  I. Lotan,  P. E. Maslen,  N. Nair,  
 D. Neuhauser,  R. Olson,  B. Peters,  J. Ritchie,  N. E. Schultz,  
 N. Shenvi,  A. C. Simmonett,  K. S. Thanthiriwatte,  Q. Wu,  W. Zhang

 Please cite Q-Chem as follows:
 Y. Shao et al., Mol. Phys. 113, 184-215 (2015)
 DOI: 10.1080/00268976.2014.952696

 Q-Chem 4.4.1 for Intel X86 Linux

 Parts of Q-Chem use Armadillo 5.200.1 (Boston Tea Smuggler).
 http://arma.sourceforge.net/

 Q-Chem begins on Tue Jan 21 14:22:04 2020  

Host: 
0

     Scratch files written to /tmp/5790264.priya/ZrOx.save//
 Jul2716 11668_ 21447  21445 5558   
 Parallel job on  1  processors
Processing $rem in /usr/usc/qchem/4.4/config/preferences.
 MEM_TOTAL  2000 
The previous job contains 0 fragments, simply inherited here

Checking the input file for inconsistencies... 	...done.

--------------------------------------------------------------
User input:
--------------------------------------------------------------

$comment
-----------------------
A GEOMETRY OPTIMIZATION
-----------------------
$end

$molecule
READ
$end

$rem
JOBTYPE   OPT
METHOD   B3LYP
BASIS   GEN
ECP   GEN
SCF_GUESS   READ
MAX_SCF_CYCLES   200
SCF_CONVERGENCE 8
SCF_PRINT 1
PDB_PRINT 2
THRESH 14
VARTHRESH 14
INCDFT FALSE
SYMMETRY False
Sym_ignore True
SCF_ALGORITHM GDM
XC_GRID 000128000302
GEOM_OPT_MAX_CYCLES 200
DFT_D           EMPIRICAL_GRIMME3
DFT_D3_S6       1000
DFT_D3_RS6     1261
DFT_D3_S8      1703
DFT_D3_3BODY    FALSE
SCF_PRINT 1
PDB_PRINT 2
$end

$basis
O
6-31+G**
****
S
6-31+G**
****
Zr
LanL2DZ
****
$end

$ecp
Zr
LanL2DZ
****
$end

--------------------------------------------------------------
 ----------------------------------------------------------------
             Standard Nuclear Orientation (Angstroms)
    I     Atom           X                Y                Z
 ----------------------------------------------------------------
    1      Zr      0.0000000000     0.0000000000     0.0000000000
    2      O       0.0000000000     0.0000000000     1.7812800000
    3      S       0.0000000000     0.0000000000    -1.7812700000
 ----------------------------------------------------------------
 Nuclear Repulsion Energy =   104.5709882941 hartrees
 There are       18 alpha and       18 beta electrons

 Q-Chem warning in module /home/scratch/svnadmin/11668_zgan/qchem/forms1/BasisType.C, line 1419:

 Setting pure/cartesian flag to 2111 for general basis


 Requested basis set is non-standard
 There are 19 shells and 62 basis functions

 Total QAlloc Memory Limit   2000 MB
 Mega-Array Size        61 MB
 MEM_STATIC part        62 MB
 A cutoff of  1.0D-14 yielded    186 shell pairs
 There are      2030 function pairs (      2307 Cartesian)
 
 -------------------------------------------------------
 OpenMP Integral Computing Module                       
 Release: version 1.0, May 2013, Q-Chem Inc. Pittsburgh 
 -------------------------------------------------------
 Integral Job Info:
 Integral job number is                      11
 Integral operator is                         1
 short-range coefficients                     0
 long-range coefficients              100000000
 Omega coefficients                           0
 if combine SR and LR in K                    0
 Integral screening is                        0
 Integral computing path is                   2
 max size of driver memory is            800000
 size of driver memory is                593474
 size of scratch memory is             15166112
 max col of scratch BK array               1296
 max len of scratch array in speh3          155
 max len of scratch index in speh4           18
 max int batch size is                      520
 min int batch size is                       52
 fixed nKL is                                52
 max L of basis functions is                  2
 order of int derivative is                   0
 number of shells is                         19
 number of basis is                          66
 number of cartesian basis is                66
 number of contracted shell pairs           186
 number of primitive shell pairs           1094
 maxK2 (contraction) of shell pair           36
 max number of K2 of shell pair               1
 max number of CS2 of shell pair             12
 max number of PS2 of shell pair             72
 mem total for path MDJ                   14224
 -------------------------------------------------------
 Requested basis set is non-standard
 Compound shells will be simplified
 There are 26 shells and 62 basis functions
 A cutoff of  1.0D-14 yielded    345 shell pairs
 There are      2009 function pairs (      2286 Cartesian)
 Smallest overlap matrix eigenvalue = 1.03E-03

 Scale SEOQF with 1.000000e-01/1.000000e-01/1.000000e-01

 Standard Electronic Orientation quadrupole field applied
 Nucleus-field energy     =    -0.0000000082 hartrees
 Guess MOs from SCF MO coefficient file
 Reading MOs from coefficient file
 Reading MOs from coefficient file
 A restricted hybrid HF-DFT SCF calculation will be
 performed using Geometric Direct Minimization
 Exchange:     0.2000 Hartree-Fock + 0.0800 Slater + 0.7200 B88
 Correlation:  0.1900 VWN1RPA + 0.8100 LYP
 Using Euler-Maclaurin-Lebedev (128,302) quadrature formula
 Dispersion:   Grimme D3
 SCF converges when RMS gradient is below 1.0E-08
 Maximum number of minimization steps = 200
 using 12 threads for integral computing 
 -------------------------------------------------------
 OpenMP BLAS3 based DFT computing Module                
 Release: version 1.0, May 2013, Q-Chem Inc. Pittsburgh 
 -------------------------------------------------------
 
   ------------------- Entering Geometric Direct Minimization ------------------
   GDM:         diagonal hessian shift is      0.000000000000000E+000
   GDM::PreWSS: input subspace size is                  1
   GDM::PreWSS: working subspace size set to            1
   GDM::PrEWSS: # of linearly dependent vectors =            0
   GDM::PrEWSS: Max dev from orthonormality =   4.440892098500626E-016
   GDM::BFGS:   lowest Hinv e-value     1.00000000000000     
   GDM::BFGS:   highest Hinv e-value    1.00000000000000     
   GDM::      : max scaling in EWCs is          2.82842712474619     
   GDM::      : max rotation in step is       -1.385027587622450E-007
   GDM::        grad.step =  -6.353984250605030E-014
   ------- Leaving GDM -- hopefully with a step in the right direction! --------
 
 ---------------------------------------
  Cycle       Energy        RMS Gradient
 ---------------------------------------
    1    -519.7381531391      1.07E-07  Gap = 0.00 eV  Normal BFGS step
 
   ------------------- Entering Geometric Direct Minimization ------------------
   GDM::trust : actual energy change is        0.000000000000000E+000
   GDM::trust : predicted energy change was   -9.530976375907543E-014
   GDM::trust : updated trust radius is        0.330000000000000     
   GDM:         diagonal hessian shift is      0.000000000000000E+000
   GDM::PreWSS: input subspace size is                  2
   GDM::PreWSS: working subspace size set to            2
   GDM::PrEWSS: # of linearly dependent vectors =            1
   GDM::PrEWSS: Max dev from orthonormality =   3.677613769070831E-016
   GDM::BFGS:   lowest Hinv e-value    0.929233635908705     
   GDM::BFGS:   highest Hinv e-value    1.14169358558884     
   GDM::      : max scaling in EWCs is          2.82842712474619     
   GDM::      : max rotation in step is        1.569787205726684E-008
   GDM::        grad.step =  -8.592532409923509E-016
   ------- Leaving GDM -- hopefully with a step in the right direction! --------
 
    2    -519.7381531391      1.01E-08  Gap = 230.65 eV  Normal BFGS step
 
   ------------------- Entering Geometric Direct Minimization ------------------
   GDM::trust : actual energy change is       -3.410605131648481E-013
   GDM::trust : predicted energy change was   -1.288879861488526E-015
   GDM::trust : updated trust radius is        0.330000000000000     
   GDM:         diagonal hessian shift is      0.000000000000000E+000
   GDM::PreWSS: input subspace size is                  3
   GDM::PreWSS: working subspace size set to            3
   GDM::PrEWSS: # of linearly dependent vectors =            2
   GDM::PrEWSS: Max dev from orthonormality =   4.857225732735060E-016
   GDM::BFGS:   lowest Hinv e-value    0.276486562309962     
   GDM::BFGS:   highest Hinv e-value    1.81759729843603     
   GDM::      : max scaling in EWCs is          2.82842712474619     
   GDM::      : max rotation in step is       -2.411889956934715E-008
   GDM::        grad.step =  -9.751321431344234E-016
   ------- Leaving GDM -- hopefully with a step in the right direction! --------
 
    3    -519.7381531391      2.99E-08  Gap = 230.65 eV  Normal BFGS step
 
   ------------------- Entering Geometric Direct Minimization ------------------
   GDM::trust : actual energy change is        1.136868377216160E-013
   GDM::trust : predicted energy change was   -1.462698214701635E-015
   GDM::trust : updated trust radius is        0.108900000000000     
   GDM::WARNING energy changes are now smaller than effective accuracy.
   GDM::        calculation will continue, but THRESH should be increased
   GDM::        or SCF_CONVERGENCE decreased.
   GDM::        effective_thresh =   1.800000000000000E-010
   GDM:         diagonal hessian shift is      0.000000000000000E+000
   GDM::PreWSS: input subspace size is                  4
   GDM::PreWSS: working subspace size set to            4
   GDM::PrEWSS: # of linearly dependent vectors =            3
   GDM::PrEWSS: Max dev from orthonormality =   7.771561172376096E-016
   GDM::BFGS:   lowest Hinv e-value    0.188709806342124     
   GDM::BFGS:   highest Hinv e-value    1.37533271143156     
   GDM::      : max scaling in EWCs is          2.82842712474619     
   GDM::      : max rotation in step is        3.016898905828215E-008
   GDM::        grad.step =  -8.701331143549486E-016
   ------- Leaving GDM -- hopefully with a step in the right direction! --------
 
    4    -519.7381531391      2.20E-08  Gap = 230.65 eV  Normal BFGS step
 
   ------------------- Entering Geometric Direct Minimization ------------------
   GDM::trust : actual energy change is       -9.094947017729282E-013
   GDM::trust : predicted energy change was   -1.305199671532423E-015
   GDM::trust : updated trust radius is        0.330000000000000     
   GDM:         diagonal hessian shift is      0.000000000000000E+000
   GDM::PreWSS: input subspace size is                  5
   GDM::PreWSS: working subspace size set to            5
   GDM::PrEWSS: # of linearly dependent vectors =            4
   GDM::PrEWSS: Max dev from orthonormality =   8.187894806610529E-016
   GDM::BFGS:   lowest Hinv e-value    0.221989616353732     
   GDM::BFGS:   highest Hinv e-value    1.37238816075846     
   GDM::      : max scaling in EWCs is          2.82842712474619     
   GDM::      : max rotation in step is       -1.403332680630668E-008
   GDM::        grad.step =  -2.983021496336425E-016
   ------- Leaving GDM -- hopefully with a step in the right direction! --------
 
    5    -519.7381531391      9.55E-09 Convergence criterion met
 ---------------------------------------
 One-Electron    Energy =  -939.2931248135
 Total Coulomb   Energy =   355.2928755082
 Alpha Exchange  Energy =    -3.8686835142
 Beta  Exchange  Energy =    -3.8686835142
 DFT   Exchange  Energy =   -30.8762729235
 DFT Correlation Energy =    -1.6952521679
 Nuclear Repu.   Energy =   104.5709882859
 Nuclear Attr.   Energy = -1436.5005157657
 Kinetic         Energy =   497.2073909522
 SCF time:  CPU 11.81 s  wall 1.44 s
 SCF   energy in the final basis set = -519.7381531391
 Total energy in the final basis set = -519.7381531391
 
 --------------------------------------------------------------
 
                    Orbital Energies (a.u.)
 --------------------------------------------------------------
 
 Alpha MOs
 -- Occupied --
-88.833 -19.154  -7.930  -5.891  -5.886  -5.886  -2.096  -1.358
 -1.286  -1.286  -0.892  -0.643  -0.383  -0.383  -0.373  -0.297
 -0.297  -0.193
 -- Virtual --
 -0.141  -0.134  -0.134  -0.024  -0.024   0.003   0.003   0.018
  0.026   0.087   0.089   0.089   0.094   0.094   0.109   0.168
  0.168   0.204   0.218   0.218   0.243   0.295   0.305   0.305
  0.520   0.534   0.534   0.623   0.772   0.772   0.860   0.860
  0.914   0.983   1.183   1.183   1.252   1.711   1.795   1.795
  1.844   1.844   2.010  15.144
 --------------------------------------------------------------
 
          Ground-State Mulliken Net Atomic Charges

     Atom                 Charge (a.u.)
  ----------------------------------------
      1 Zr                    0.744714
      2 O                    -0.472102
      3 S                    -0.272612
  ----------------------------------------
  Sum of atomic charges =     0.000000

 -----------------------------------------------------------------
                    Cartesian Multipole Moments
 -----------------------------------------------------------------
    Charge (ESU x 10^10)
                 0.0000
    Dipole Moment (Debye)
         X       0.0000      Y       0.0000      Z      -0.0506
       Tot       0.0506
    Quadrupole Moments (Debye-Ang)
        XX     -38.1456     XY       0.0000     YY     -38.1456
        XZ       0.0000     YZ       0.0000     ZZ     -57.0507
    Octopole Moments (Debye-Ang^2)
       XXX       0.0000    XXY       0.0000    XYY       0.0000
       YYY       0.0000    XXZ      14.0120    XYZ       0.0000
       YYZ      14.0120    XZZ       0.0000    YZZ       0.0000
       ZZZ      45.5107
    Hexadecapole Moments (Debye-Ang^3)
      XXXX     -60.5663   XXXY       0.0000   XXYY     -20.1888
      XYYY       0.0000   YYYY     -60.5663   XXXZ       0.0000
      XXYZ       0.0000   XYYZ       0.0000   YYYZ       0.0000
      XXZZ     -86.0551   XYZZ       0.0000   YYZZ     -86.0551
      XZZZ       0.0000   YZZZ       0.0000   ZZZZ    -523.7330
 -----------------------------------------------------------------
 Calculating analytic gradient of the SCF energy
 Gradient of SCF Energy
            1           2           3
    1  -0.0000000   0.0000000   0.0000000
    2   0.0000000  -0.0000000  -0.0000000
    3  -0.5609939  -0.0312995   0.5922933
 Max gradient component =       5.923E-01
 RMS gradient           =       2.721E-01
 Gradient time:  CPU 7.72 s  wall 3.76 s
 Geometry Optimization Parameters
   NAtoms,    NIC,     NZ,  NCons,   NDum,   NFix, NCnnct, MaxDiis
        3       9       0       0       0       0       0       0


** GEOMETRY OPTIMIZATION IN DELOCALIZED INTERNAL COORDINATES **
   Searching for a Minimum

   Optimization Cycle:   1

                       Coordinates (Angstroms)
     ATOM                X               Y               Z
      1  Zr        0.0000000000    0.0000000000    0.0000000000
      2  O         0.0000000000    0.0000000000    1.7812800000
      3  S         0.0000000000    0.0000000000   -1.7812700000
   Point Group: c1    Number of degrees of freedom:     3


   Energy is   -519.738153139


 Attempting to Generate Delocalized Internal Coordinates

  ***ERROR*** Angle     2    1    3   is near-linear
              But No atom available to define colinear bend
**WARNING** Problems with Internal Coordinates
  Switching to Cartesian Coordinates

 ** Taking Steepest Descent Step **
 Calculated Step too Large.  Step scaled by  0.367468
 Step Taken.  Stepsize is  0.300000

                             Maximum     Tolerance    Cnvgd?
         Gradient           0.592293      0.000300      NO
         Displacement       0.217649      0.001200      NO
         Energy change     *********      0.000001      NO

 ----------------------------------------------------------------
             Standard Nuclear Orientation (Angstroms)
    I     Atom           X                Y                Z
 ----------------------------------------------------------------
    1      Zr      0.0000000000     0.0000000000     0.1090884414
    2      O       0.0000000000     0.0000000000     1.7873663606
    3      S       0.0000000000     0.0000000000    -1.8964448020
 ----------------------------------------------------------------
 Nuclear Repulsion Energy =    99.3172930353 hartrees
 There are       18 alpha and       18 beta electrons
 Applying Cartesian multipole field
    Component          Value
    ---------          -----
     (2,0,0)        1.00000E-11
     (0,2,0)        2.00000E-11
     (0,0,2)       -3.00000E-11
 Nucleus-field energy     =    -0.0000000089 hartrees
 Requested basis set is non-standard
 There are 19 shells and 62 basis functions
 A cutoff of  1.0D-14 yielded    186 shell pairs
 There are      2030 function pairs (      2307 Cartesian)
 Requested basis set is non-standard
 Compound shells will be simplified
 There are 26 shells and 62 basis functions
 A cutoff of  1.0D-14 yielded    342 shell pairs
 There are      2002 function pairs (      2279 Cartesian)
 Smallest overlap matrix eigenvalue = 1.38E-03
 Guess MOs from SCF MO coefficient file
 Reading MOs from coefficient file
 Reading MOs from coefficient file
 A restricted hybrid HF-DFT SCF calculation will be
 performed using Geometric Direct Minimization
 Exchange:     0.2000 Hartree-Fock + 0.0800 Slater + 0.7200 B88
 Correlation:  0.1900 VWN1RPA + 0.8100 LYP
 Using Euler-Maclaurin-Lebedev (128,302) quadrature formula
 Dispersion:   Grimme D3
 SCF converges when RMS gradient is below 1.0E-08
 Maximum number of minimization steps = 200
 Geometry optimization detected.  Setting ReadMinima to 0
 Setting SaveMinima to 0
 using 12 threads for integral computing 
 -------------------------------------------------------
 OpenMP BLAS3 based DFT computing Module                
 Release: version 1.0, May 2013, Q-Chem Inc. Pittsburgh 
 -------------------------------------------------------
 
   ------------------- Entering Geometric Direct Minimization ------------------
   GDM:         diagonal hessian shift is      0.000000000000000E+000
   GDM::PreWSS: input subspace size is                  1
   GDM::PreWSS: working subspace size set to            1
   GDM::PrEWSS: # of linearly dependent vectors =            0
   GDM::PrEWSS: Max dev from orthonormality =   0.000000000000000E+000
   GDM::BFGS:   lowest Hinv e-value     1.00000000000000     
   GDM::BFGS:   highest Hinv e-value    1.00000000000000     
   GDM::      : max scaling in EWCs is          2.63176065876618     
   GDM::      : max rotation in step is       -7.340548043284675E-002
   GDM::        grad.step =  -3.622853223136595E-002
   ------- Leaving GDM -- hopefully with a step in the right direction! --------
 
 ---------------------------------------
  Cycle       Energy        RMS Gradient
 ---------------------------------------
    1    -519.8619614365      5.85E-02  Gap = 0.00 eV  Normal BFGS step
 
   ------------------- Entering Geometric Direct Minimization ------------------
   GDM::trust : actual energy change is       -1.190115648842038E-002
   GDM::trust : predicted energy change was   -5.434279834704892E-002
   GDM::trust : updated trust radius is        0.330000000000000     
   GDM:         diagonal hessian shift is      0.000000000000000E+000
   GDM::PreWSS: input subspace size is                  2
   GDM::PreWSS: working subspace size set to            2
   GDM::PrEWSS: # of linearly dependent vectors =            0
   GDM::PrEWSS: Max dev from orthonormality =   3.178013407989511E-015
   GDM::BFGS:   lowest Hinv e-value    0.281241852929986     
   GDM::BFGS:   highest Hinv e-value    2.09103091517685     
   GDM::      : max scaling in EWCs is          2.82842712474619     
   GDM::      : max rotation in step is        9.126082328117366E-002
   GDM::        grad.step =  -3.424369284521369E-002
   ------- Leaving GDM -- hopefully with a step in the right direction! --------
 
    2    -519.8738625930      1.09E-01  Gap = 0.00 eV  Normal BFGS step
 
   ------------------- Entering Geometric Direct Minimization ------------------
   GDM::trust : actual energy change is        2.275189969657276E-002
   GDM::trust : predicted energy change was   -5.136553926782055E-002
   GDM::trust : updated trust radius is        0.108900000000000     
   GDM::search:  On step            1 .  The current bracket is:
       left   : x =  0.0000E+00, e =      -519.8738625930, g = -0.1719E+00
       current: x =  0.1992E+00, e =      -519.8511106933, g =  0.3018E+00
       right  : x =  0.1000E+04, e =      1000.0000000000, g =  0.1000E+04
       next   : x =  0.5984E-01
   GDM::      : max rotation in step is        2.741534443168266E-002
   ------- Leaving GDM -- hopefully with a step in the right direction! --------
 
    3    -519.8511106933      4.43E-02  Gap = 0.00 eV  Line search: overstep
 
   ------------------- Entering Geometric Direct Minimization ------------------
   GDM::trust : actual energy change is       -1.277251771682586E-002
   GDM::trust : predicted energy change was   -5.136553926782055E-002
   GDM::trust : updated trust radius is        0.108900000000000     
   GDM:         diagonal hessian shift is      0.000000000000000E+000
   GDM::PreWSS: input subspace size is                  3
   GDM::PreWSS: working subspace size set to            3
   GDM::PrEWSS: # of linearly dependent vectors =            0
   GDM::PrEWSS: Max dev from orthonormality =   1.092667623048271E-013
   GDM::BFGS:   lowest Hinv e-value    0.223187420682708     
   GDM::BFGS:   highest Hinv e-value    1.25471875490011     
   GDM::      : max scaling in EWCs is          2.82842712474619     
   GDM::      : max rotation in step is        2.249881615774849E-002
   GDM::        grad.step =  -8.216670447287772E-003
   ------- Leaving GDM -- hopefully with a step in the right direction! --------
 
    4    -519.8866351107      4.20E-02  Gap = 0.00 eV  Normal BFGS step
 
   ------------------- Entering Geometric Direct Minimization ------------------
   GDM::trust : actual energy change is       -4.052748587810129E-003
   GDM::trust : predicted energy change was   -1.232500567093166E-002
   GDM::trust : updated trust radius is        0.330000000000000     
   GDM:         diagonal hessian shift is      0.000000000000000E+000
   GDM::PreWSS: input subspace size is                  4
   GDM::PreWSS: working subspace size set to            4
   GDM::PrEWSS: # of linearly dependent vectors =            0
   GDM::PrEWSS: Max dev from orthonormality =   5.338646191788143E-013
   GDM::BFGS:   lowest Hinv e-value    0.247525667725394     
   GDM::BFGS:   highest Hinv e-value    1.31734545174926     
   GDM::      : max scaling in EWCs is          2.45025103918173     
   GDM::      : max rotation in step is       -2.030383936056102E-002
   GDM::        grad.step =  -2.167046197518048E-003
   ------- Leaving GDM -- hopefully with a step in the right direction! --------
 
    5    -519.8906878593      2.66E-02  Gap = 0.00 eV  Normal BFGS step
 
   ------------------- Entering Geometric Direct Minimization ------------------
   GDM::trust : actual energy change is       -1.331992904965773E-003
   GDM::trust : predicted energy change was   -3.250569296277072E-003
   GDM::trust : updated trust radius is        0.330000000000000     
   GDM:         diagonal hessian shift is      0.000000000000000E+000
   GDM::PreWSS: input subspace size is                  5
   GDM::PreWSS: working subspace size set to            5
   GDM::PrEWSS: # of linearly dependent vectors =            0
   GDM::PrEWSS: Max dev from orthonormality =   2.879640970121500E-012
   GDM::BFGS:   lowest Hinv e-value    0.249553649137930     
   GDM::BFGS:   highest Hinv e-value    1.26867661717458     
   GDM::      : max scaling in EWCs is          2.79485387286169     
   GDM::      : max rotation in step is        1.903817313499297E-002
   GDM::        grad.step =  -8.174040102794916E-004
   ------- Leaving GDM -- hopefully with a step in the right direction! --------
 
    6    -519.8920198522      1.80E-02  Gap = 0.00 eV  Normal BFGS step
 
   ------------------- Entering Geometric Direct Minimization ------------------
   GDM::trust : actual energy change is        6.224886988093203E-006
   GDM::trust : predicted energy change was   -1.226106015419238E-003
   GDM::trust : updated trust radius is        0.108900000000000     
   GDM::search:  On step            1 .  The current bracket is:
       left   : x =  0.0000E+00, e =      -519.8920198522, g = -0.2782E-01
       current: x =  0.2939E-01, e =      -519.8920136273, g =  0.2829E-01
       right  : x =  0.1000E+04, e =      1000.0000000000, g =  0.1000E+04
       next   : x =  0.1458E-01
   GDM::      : max rotation in step is        9.447142469482046E-003
   ------- Leaving GDM -- hopefully with a step in the right direction! --------
 
    7    -519.8920136273      3.29E-03  Gap = 0.00 eV  Line search: overstep
 
   ------------------- Entering Geometric Direct Minimization ------------------
   GDM::trust : actual energy change is       -4.090834207772787E-004
   GDM::trust : predicted energy change was   -1.226106015419238E-003
   GDM::trust : updated trust radius is        0.108900000000000     
   GDM:         diagonal hessian shift is      0.000000000000000E+000
   GDM::PreWSS: input subspace size is                  6
   GDM::PreWSS: working subspace size set to            6
   GDM::PrEWSS: # of linearly dependent vectors =            0
   GDM::PrEWSS: Max dev from orthonormality =   1.455835452190968E-012
   GDM::BFGS:   lowest Hinv e-value    0.243862866200023     
   GDM::BFGS:   highest Hinv e-value    1.31371098115918     
   GDM::      : max scaling in EWCs is          2.64210352324540     
   GDM::      : max rotation in step is       -6.340134721758025E-003
   GDM::        grad.step =  -1.234619285229743E-004
   ------- Leaving GDM -- hopefully with a step in the right direction! --------
 
    8    -519.8924289356      4.44E-03  Gap = 0.00 eV  Normal BFGS step
 
   ------------------- Entering Geometric Direct Minimization ------------------
   GDM::trust : actual energy change is       -6.757386449862679E-005
   GDM::trust : predicted energy change was   -1.851928927844615E-004
   GDM::trust : updated trust radius is        0.330000000000000     
   GDM:         diagonal hessian shift is      0.000000000000000E+000
   GDM::PreWSS: input subspace size is                  7
   GDM::PreWSS: working subspace size set to            7
   GDM::PrEWSS: # of linearly dependent vectors =            0
   GDM::PrEWSS: Max dev from orthonormality =   1.381988967708025E-011
   GDM::BFGS:   lowest Hinv e-value    0.235353753739312     
   GDM::BFGS:   highest Hinv e-value    1.22902581965918     
   GDM::      : max scaling in EWCs is          2.61416151538183     
   GDM::      : max rotation in step is        2.107137506272964E-003
[...]
 
    2    -519.9728228854      2.82E-04  Gap = 0.00 eV  Normal BFGS step
 
   ------------------- Entering Geometric Direct Minimization ------------------
   GDM::trust : actual energy change is        1.434489149687579E-008
   GDM::trust : predicted energy change was   -2.881050359597297E-007
   GDM::trust : updated trust radius is        0.108900000000000     
   GDM::search:  On step            1 .  The current bracket is:
       left   : x =  0.0000E+00, e =      -519.9728228854, g = -0.3768E-03
       current: x =  0.5098E-03, e =      -519.9728228710, g =  0.4050E-03
       right  : x =  0.1000E+04, e =      1000.0000000000, g =  0.1000E+04
       next   : x =  0.2372E-03
   GDM::      : max rotation in step is       -1.504214194455917E-004
   ------- Leaving GDM -- hopefully with a step in the right direction! --------
 
    3    -519.9728228710      8.97E-05  Gap = 0.00 eV  Line search: overstep
 
   ------------------- Entering Geometric Direct Minimization ------------------
   GDM::trust : actual energy change is       -9.247764864994679E-008
   GDM::trust : predicted energy change was   -2.881050359597297E-007
   GDM::trust : updated trust radius is        0.108900000000000     
   GDM:         diagonal hessian shift is      0.000000000000000E+000
   GDM::PreWSS: input subspace size is                  3
   GDM::PreWSS: working subspace size set to            3
   GDM::PrEWSS: # of linearly dependent vectors =            1
   GDM::PrEWSS: Max dev from orthonormality =   1.387941844788187E-012
   GDM::BFGS:   lowest Hinv e-value    0.208135021787550     
   GDM::BFGS:   highest Hinv e-value    1.33786030669803     
   GDM::      : max scaling in EWCs is          2.63842516460383     
   GDM::      : max rotation in step is       -1.264840868119682E-004
   GDM::        grad.step =  -4.335645403050577E-008
   ------- Leaving GDM -- hopefully with a step in the right direction! --------
 
    4    -519.9728229778      7.94E-05  Gap = 0.00 eV  Normal BFGS step
 
   ------------------- Entering Geometric Direct Minimization ------------------
   GDM::trust : actual energy change is       -1.672651706030592E-008
   GDM::trust : predicted energy change was   -6.503468104575866E-008
   GDM::trust : updated trust radius is        0.330000000000000     
   GDM:         diagonal hessian shift is      0.000000000000000E+000
   GDM::PreWSS: input subspace size is                  4
   GDM::PreWSS: working subspace size set to            4
   GDM::PrEWSS: # of linearly dependent vectors =            2
   GDM::PrEWSS: Max dev from orthonormality =   7.346484531822739E-013
   GDM::BFGS:   lowest Hinv e-value    0.207936247788468     
   GDM::BFGS:   highest Hinv e-value    1.42336120583069     
   GDM::      : max scaling in EWCs is          2.63751040031104     
   GDM::      : max rotation in step is        6.725843739905946E-005
   GDM::        grad.step =  -1.445955584447370E-008
   ------- Leaving GDM -- hopefully with a step in the right direction! --------
 
    5    -519.9728229946      5.83E-05  Gap = 0.00 eV  Normal BFGS step
 
   ------------------- Entering Geometric Direct Minimization ------------------
   GDM::trust : actual energy change is       -5.957531357125845E-009
   GDM::trust : predicted energy change was   -2.168933376671054E-008
   GDM::trust : updated trust radius is        0.330000000000000     
   GDM:         diagonal hessian shift is      0.000000000000000E+000
   GDM::PreWSS: input subspace size is                  5
   GDM::PreWSS: working subspace size set to            5
   GDM::PrEWSS: # of linearly dependent vectors =            3
   GDM::PrEWSS: Max dev from orthonormality =   1.152460071818240E-012
   GDM::BFGS:   lowest Hinv e-value    0.211046295333321     
   GDM::BFGS:   highest Hinv e-value    1.38454114191239     
   GDM::      : max scaling in EWCs is          2.63888881399090     
   GDM::      : max rotation in step is        6.020381988131735E-005
   GDM::        grad.step =  -1.039680232368131E-008
   ------- Leaving GDM -- hopefully with a step in the right direction! --------
 
    6    -519.9728230005      8.46E-05  Gap = 0.00 eV  Normal BFGS step
 
   ------------------- Entering Geometric Direct Minimization ------------------
   GDM::trust : actual energy change is        3.988134267274290E-010
   GDM::trust : predicted energy change was   -1.559520348552197E-008
   GDM::trust : updated trust radius is        0.108900000000000     
   GDM::search:  On step            1 .  The current bracket is:
       left   : x =  0.0000E+00, e =      -519.9728230005, g = -0.9508E-04
       current: x =  0.1094E-03, e =      -519.9728230001, g =  0.9872E-04
       right  : x =  0.1000E+04, e =      1000.0000000000, g =  0.1000E+04
       next   : x =  0.5266E-04
   GDM::      : max rotation in step is        2.898988019339576E-005
   ------- Leaving GDM -- hopefully with a step in the right direction! --------
 
    7    -519.9728230001      1.27E-05  Gap = 0.00 eV  Line search: overstep
 
   ------------------- Entering Geometric Direct Minimization ------------------
   GDM::trust : actual energy change is       -5.098627298139036E-009
   GDM::trust : predicted energy change was   -1.559520348552197E-008
   GDM::trust : updated trust radius is        0.108900000000000     
   GDM:         diagonal hessian shift is      0.000000000000000E+000
   GDM::PreWSS: input subspace size is                  6
   GDM::PreWSS: working subspace size set to            6
   GDM::PrEWSS: # of linearly dependent vectors =            4
   GDM::PrEWSS: Max dev from orthonormality =   4.606436759813093E-012
   GDM::BFGS:   lowest Hinv e-value    0.207352011777282     
   GDM::BFGS:   highest Hinv e-value    1.38503294410729     
   GDM::      : max scaling in EWCs is          2.63826979535572     
   GDM::      : max rotation in step is       -2.825101661519232E-005
   GDM::        grad.step =  -1.340963533361625E-009
   ------- Leaving GDM -- hopefully with a step in the right direction! --------
 
    8    -519.9728230056      2.12E-05  Gap = 0.00 eV  Normal BFGS step
 
   ------------------- Entering Geometric Direct Minimization ------------------
   GDM::trust : actual energy change is       -9.491714081377722E-010
   GDM::trust : predicted energy change was   -2.011445300042437E-009
   GDM::trust : updated trust radius is        0.330000000000000     
   GDM:         diagonal hessian shift is      0.000000000000000E+000
   GDM::PreWSS: input subspace size is                  7
   GDM::PreWSS: working subspace size set to            7
   GDM::PrEWSS: # of linearly dependent vectors =            5
   GDM::PrEWSS: Max dev from orthonormality =   1.192135279382001E-011
   GDM::BFGS:   lowest Hinv e-value    0.205841099282330     
   GDM::BFGS:   highest Hinv e-value    1.33477046562744     
   GDM::      : max scaling in EWCs is          2.63805855892392     
   GDM::      : max rotation in step is        3.853358865557647E-006
   GDM::        grad.step =  -1.056135803494492E-010
   ------- Leaving GDM -- hopefully with a step in the right direction! --------
 
    9    -519.9728230066      4.17E-06  Gap = 0.00 eV  Normal BFGS step
 
   ------------------- Entering Geometric Direct Minimization ------------------
   GDM::trust : actual energy change is       -1.000444171950221E-010
   GDM::trust : predicted energy change was   -1.584203705241738E-010
   GDM::trust : updated trust radius is        0.330000000000000     
   GDM:         diagonal hessian shift is      0.000000000000000E+000
   GDM::PreWSS: input subspace size is                  8
   GDM::PreWSS: working subspace size set to            8
   GDM::PrEWSS: # of linearly dependent vectors =            6
   GDM::PrEWSS: Max dev from orthonormality =   1.007452454793167E-011
   GDM::BFGS:   lowest Hinv e-value    0.204071366229141     
   GDM::BFGS:   highest Hinv e-value    1.28951751299881     
   GDM::      : max scaling in EWCs is          2.63808119197281     
   GDM::      : max rotation in step is       -6.573136581512945E-007
   GDM::        grad.step =  -2.447373831186614E-012
   ------- Leaving GDM -- hopefully with a step in the right direction! --------
 
   10    -519.9728230067      5.77E-07  Gap = 0.00 eV  Normal BFGS step
 
   ------------------- Entering Geometric Direct Minimization ------------------
   GDM::trust : actual energy change is       -1.364242052659392E-012
   GDM::trust : predicted energy change was   -3.671060746779922E-012
   GDM::trust : updated trust radius is        0.330000000000000     
   GDM:         diagonal hessian shift is      0.000000000000000E+000
   GDM::PreWSS: input subspace size is                  9
   GDM::PreWSS: working subspace size set to            9
   GDM::PrEWSS: # of linearly dependent vectors =            7
   GDM::PrEWSS: Max dev from orthonormality =   1.708828911706206E-011
   GDM::BFGS:   lowest Hinv e-value    0.204776554242033     
   GDM::BFGS:   highest Hinv e-value    1.33792540321492     
   GDM::      : max scaling in EWCs is          2.63808973011226     
   GDM::      : max rotation in step is       -3.634567887767154E-007
   GDM::        grad.step =  -2.002473435046764E-013
   ------- Leaving GDM -- hopefully with a step in the right direction! --------
 
   11    -519.9728230067      2.97E-07  Gap = 0.00 eV  Normal BFGS step
 
   ------------------- Entering Geometric Direct Minimization ------------------
   GDM::trust : actual energy change is        1.136868377216160E-013
   GDM::trust : predicted energy change was   -3.003710152570146E-013
   GDM::trust : updated trust radius is        0.108900000000000     
   GDM::WARNING energy changes are now smaller than effective accuracy.
   GDM::        calculation will continue, but THRESH should be increased
   GDM::        or SCF_CONVERGENCE decreased.
   GDM::        effective_thresh =   1.800000000000000E-010
   GDM:         diagonal hessian shift is      0.000000000000000E+000
   GDM::PreWSS: input subspace size is                 10
   GDM::PreWSS: working subspace size set to           10
   GDM::PrEWSS: # of linearly dependent vectors =            9
   GDM::PrEWSS: Max dev from orthonormality =   7.873979246397766E-013
   GDM::BFGS:   lowest Hinv e-value    0.204874069579267     
   GDM::BFGS:   highest Hinv e-value    1.34214434573879     
   GDM::      : max scaling in EWCs is          2.63808742958653     
   GDM::      : max rotation in step is       -1.093141942396385E-007
   GDM::        grad.step =  -6.361553521580411E-015
   ------- Leaving GDM -- hopefully with a step in the right direction! --------
 
   12    -519.9728230067      4.07E-08  Gap = 0.00 eV  Normal BFGS step
 
   ------------------- Entering Geometric Direct Minimization ------------------
   GDM::trust : actual energy change is        0.000000000000000E+000
   GDM::trust : predicted energy change was   -9.542330282370615E-015
   GDM::trust : updated trust radius is        0.330000000000000     
   GDM:         diagonal hessian shift is      0.000000000000000E+000
   GDM::PreWSS: input subspace size is                 11
   GDM::PreWSS: working subspace size set to           11
   GDM::PrEWSS: # of linearly dependent vectors =           10
   GDM::PrEWSS: Max dev from orthonormality =   2.835474910423130E-013
   GDM::BFGS:   lowest Hinv e-value    0.203917372943593     
   GDM::BFGS:   highest Hinv e-value    1.58438887339479     
   GDM::      : max scaling in EWCs is          2.63808714166960     
   GDM::      : max rotation in step is       -3.690603382192366E-008
   GDM::        grad.step =  -7.605266633766431E-016
   ------- Leaving GDM -- hopefully with a step in the right direction! --------
 
   13    -519.9728230067      9.55E-09 Convergence criterion met
 ---------------------------------------
 One-Electron    Energy =  -906.7102517904
 Total Coulomb   Energy =   338.9524240646
 Alpha Exchange  Energy =    -3.8444328576
 Beta  Exchange  Energy =    -3.8444328576
 DFT   Exchange  Energy =   -30.6824796360
 DFT Correlation Energy =    -1.6770836587
 Nuclear Repu.   Energy =    87.8334337291
 Nuclear Attr.   Energy = -1402.1796108016
 Kinetic         Energy =   495.4693590112
 SCF time:  CPU 23.60 s  wall 2.21 s
 SCF   energy in the final basis set = -519.9728230067
 Total energy in the final basis set = -519.9728230067
 
 --------------------------------------------------------------
 
                    Orbital Energies (a.u.)
 --------------------------------------------------------------
 
 Alpha MOs
 -- Occupied --
-88.818 -19.165  -7.894  -5.854  -5.854  -5.852  -2.134  -1.335
 -1.335  -1.334  -0.892  -0.628  -0.368  -0.365  -0.365  -0.246
 -0.246  -0.241
 -- Virtual --
 -0.169  -0.169  -0.157  -0.061  -0.061  -0.025  -0.025   0.012
  0.027   0.077   0.077   0.088   0.091   0.091   0.106   0.151
  0.151   0.192   0.197   0.197   0.214   0.264   0.282   0.282
  0.377   0.563   0.563   0.570   0.679   0.826   0.826   0.872
  0.872   0.955   1.153   1.153   1.232   1.654   1.777   1.777
  1.811   1.811   1.972  10.751
 --------------------------------------------------------------
 
          Ground-State Mulliken Net Atomic Charges

     Atom                 Charge (a.u.)
  ----------------------------------------
      1 Zr                    1.036058
      2 O                    -0.674297
      3 S                    -0.361761
  ----------------------------------------
  Sum of atomic charges =     0.000000

 -----------------------------------------------------------------
                    Cartesian Multipole Moments
 -----------------------------------------------------------------
    Charge (ESU x 10^10)
                 0.0000
    Dipole Moment (Debye)
         X       0.0000      Y       0.0000      Z       2.7896
       Tot       2.7896
    Quadrupole Moments (Debye-Ang)
        XX     -38.6074     XY       0.0000     YY     -38.6074
        XZ       0.0000     YZ       0.0000     ZZ     -64.9317
    Octopole Moments (Debye-Ang^2)
       XXX       0.0000    XXY       0.0000    XYY       0.0000
       YYY       0.0000    XXZ      19.8356    XYZ       0.0000
       YYZ      19.8356    XZZ       0.0000    YZZ       0.0000
       ZZZ      52.5793
    Hexadecapole Moments (Debye-Ang^3)
      XXXX     -59.7565   XXXY       0.0000   XXYY     -19.9188
      XYYY       0.0000   YYYY     -59.7565   XXXZ       0.0000
      XXYZ       0.0000   XYYZ       0.0000   YYYZ       0.0000
      XXZZ    -118.5505   XYZZ       0.0000   YYZZ    -118.5505
      XZZZ       0.0000   YZZZ       0.0000   ZZZZ    -731.1464
 -----------------------------------------------------------------
 Calculating analytic gradient of the SCF energy
 Gradient of SCF Energy
            1           2           3
    1  -0.0000000   0.0000000  -0.0000000
    2  -0.0000000  -0.0000000   0.0000000
    3   0.0000452   0.0000407  -0.0000860
 Max gradient component =       8.596E-05
 RMS gradient           =       3.511E-05
 Gradient time:  CPU 5.21 s  wall 0.76 s
 Geometry Optimization Parameters
   NAtoms,    NIC,     NZ,  NCons,   NDum,   NFix, NCnnct, MaxDiis
        3       9       0       0       0       0       0       0

 Cartesian Hessian Update
 Hessian Updated using BFGS Update


** GEOMETRY OPTIMIZATION IN CARTESIAN COORDINATES **
   Searching for a Minimum

   Optimization Cycle:   9

                       Coordinates (Angstroms)
     ATOM                X               Y               Z
      1  Zr        0.0000000000    0.0000000000    0.1856006571
      2  O         0.0000000000    0.0000000000    1.9806936734
      3  S         0.0000000000    0.0000000000   -2.1662843305
   Point Group: c1    Number of degrees of freedom:     3


   Energy is   -519.972823007


 Translations and Rotations Projected Out of Hessian

  2 Hessian modes will be used to form the next step
  Hessian Eigenvalues:
     0.269335    0.863947

 Minimum Search - Taking Simple RFO Step
 Searching for Lamda that Minimizes Along All modes
 Value Taken    Lamda =   0.00000000
 Step Taken.  Stepsize is  0.000381

                             Maximum     Tolerance    Cnvgd?
         Gradient           0.000086      0.000300     YES
         Displacement       0.000309      0.001200     YES
         Energy change     -0.000001      0.000001     YES


                       Distance Matrix (Angstroms)
             Zr(  1)   O (  2)
   O (  2)  1.795093
   S (  3)  2.351885  4.146978
 
 Final energy is   -519.972823006673     


 ******************************
 **  OPTIMIZATION CONVERGED  **
 ******************************

                       Coordinates (Angstroms)
     ATOM                X               Y               Z
      1  Zr        0.0000000000    0.0000000000    0.1856006571
      2  O         0.0000000000    0.0000000000    1.9806936734
      3  S         0.0000000000    0.0000000000   -2.1662843305

Z-matrix Print:
$molecule
0 1
Zr
O  1 1.795093
S  1 2.351885 2 180.000000
$end

 
 --------------------------------------------------------------
 
                    Orbital Energies (a.u.)
 --------------------------------------------------------------
 
 Alpha MOs
 -- Occupied --
-88.818 -19.165  -7.894  -5.854  -5.854  -5.852  -2.134  -1.335
 -1.335  -1.334  -0.892  -0.628  -0.368  -0.365  -0.365  -0.246
 -0.246  -0.241
 -- Virtual --
 -0.169  -0.169  -0.157  -0.061  -0.061  -0.025  -0.025   0.012
  0.027   0.077   0.077   0.088   0.091   0.091   0.106   0.151
  0.151   0.192   0.197   0.197   0.214   0.264   0.282   0.282
  0.377   0.563   0.563   0.570   0.679   0.826   0.826   0.872
  0.872   0.955   1.153   1.153   1.232   1.654   1.777   1.777
  1.811   1.811   1.972  10.751
 --------------------------------------------------------------
 
          Ground-State Mulliken Net Atomic Charges

     Atom                 Charge (a.u.)
  ----------------------------------------
      1 Zr                    1.036058
      2 O                    -0.674297
      3 S                    -0.361761
  ----------------------------------------
  Sum of atomic charges =     0.000000

 -----------------------------------------------------------------
                    Cartesian Multipole Moments
 -----------------------------------------------------------------
    Charge (ESU x 10^10)
                 0.0000
    Dipole Moment (Debye)
         X       0.0000      Y       0.0000      Z       2.7896
       Tot       2.7896
    Quadrupole Moments (Debye-Ang)
        XX     -38.6074     XY       0.0000     YY     -38.6074
        XZ       0.0000     YZ       0.0000     ZZ     -64.9317
    Octopole Moments (Debye-Ang^2)
       XXX       0.0000    XXY       0.0000    XYY       0.0000
       YYY       0.0000    XXZ      19.8356    XYZ       0.0000
       YYZ      19.8356    XZZ       0.0000    YZZ       0.0000
       ZZZ      52.5793
    Hexadecapole Moments (Debye-Ang^3)
      XXXX     -59.7565   XXXY       0.0000   XXYY     -19.9188
      XYYY       0.0000   YYYY     -59.7565   XXXZ       0.0000
      XXYZ       0.0000   XYYZ       0.0000   YYYZ       0.0000
      XXZZ    -118.5505   XYZZ       0.0000   YYZZ    -118.5505
      XZZZ       0.0000   YZZZ       0.0000   ZZZZ    -731.1464
 -----------------------------------------------------------------
Archival summary:
1\1\hpc0241\OPT\ProcedureUnspecified\BasisUnspecified\r111(\liqiuy\TueJan2114:22:572020TueJan2114:22:572020\0\\#,OPT,ProcedureUnspecified,BasisUnspecified,\\28,1\Zr\O,1,1.79509\S,1,2.35188,2,180\\\@

 Total job time:  52.63s(wall), 375.95s(cpu) 
 Tue Jan 21 14:22:57 2020

        *************************************************************
        *                                                           *
        *  Thank you very much for using Q-Chem.  Have a nice day.  *
        *                                                           *
        *************************************************************


0 sent ACK to 0 
now end server 0 ... 
cleanup process ... done
