
Running Job 1 of 2 ZrOx.in
qchem ZrOx.in_11665.0 /tmp/5795493.priya/ZrOx.save/ 1
/usr/usc/qchem/4.4/bin/mpi/mpirun_qchem -machinefile /usr/usc/qchem/4.4/bin/mpi/machines -np 1 /usr/usc/qchem/4.4/exe/qcprog.exe ZrOx.in_11665.0 /tmp/5795493.priya/ZrOx.save/

Process 0 of 1 is on hpc0241.hpcc.usc.edu - thread support 0
initial socket setup ...start
initial socket setup ...done 
now start server 0 ... 
Check license passed

                  Welcome to Q-Chem
     A Quantum Leap Into The Future Of Chemistry


 Q-Chem 4.4, Q-Chem, Inc., Pleasanton, CA (2016)

 Y. Shao,  Z. Gan,  E. Epifanovsky,  A. T. B. Gilbert,  M. Wormit,  
 J. Kussmann,  A. W. Lange,  A. Behn,  J. Deng,  X. Feng,  D. Ghosh,  
 M. Goldey,  P. R. Horn,  L. D. Jacobson,  I. Kaliman,  F.Rob,  
 R. Z. Khaliullin,  T. Kus,  A. Landau,  J. Liu,  E. I. Proynov,  Y. M. Rhee,  
 R. M. Richard,  M. A. Rohrdanz,  R. P. Steele,  E. J. Sundstrom,  
 H. L. Woodcock III,  P. M. Zimmerman,  D. Zuev,  B. Albrecht,  E. Alguire,  
 B. Austin,  S. A. Baeppler,  G. J. O. Beran,  Y. A. Bernard,  E. Berquist,  
 K. Brandhorst,  K. B. Bravaya,  S. T. Brown,  D. Casanova,  C.-M. Chang,  
 Y. Chen,  S. H. Chien,  K. D. Closser,  M. P. Coons,  D. L. Crittenden,  
 S. Dasgupta,  M. Diedenhofen,  R. A. DiStasio Jr.,  H. Do,  A. D. Dutoi,  
 R. G. Edgar,  P.-T. Fang,  S. Fatehi,  Q. Feng,  L. Fusti-Molnar,  
 A. Ghysels,  A. Golubeva-Zadorozhnaya,  J. Gomes,  A. Gunina,  
 M. W. D. Hanson-Heine,  P. H. P. Harbach,  A. W. Hauser,  E. G. Hohenstein,  
 Z. C. Holden,  K. Hui,  T.-C. Jagau,  H. Ji,  B. Kaduk,  K. Khistyaev,  
 Jaehoon Kim,  Jihan Kim,  R. A. King,  P. Klunzinger,  D. Kosenkov,  
 T. Kowalczyk,  C. M. Krauter,  A. Kunitsa,  K. U. Lao,  A. Laurent,  
 K. V. Lawler,  D. Lefrancois,  S. Lehtola,  S. V. Levchenko,  C. Y. Lin,  
 Y.-S. Lin,  F. Liu,  E. Livshits,  R. C. Lochan,  A. Luenser,  P. Manohar,  
 S. F. Manzer,  S.-P. Mao,  Y. Mao,  N. Mardirossian,  A. V. Marenich,  
 L. A. Martinez-Martinez,  S. A. Maurer,  N. J. Mayhall,  J.-M. Mewes,  
 A. F. Morrison,  K. Nanda,  C. M. Oana,  R. Olivares-Amaya,  D. P. O'Neill,  
 J. A. Parkhill,  T. M. Perrine,  R. Peverati,  P. A. Pieniazek,  F. Plasser,  
 A. Prociuk,  D. R. Rehn,  E. Rosta,  N. J. Russ,  N. Sergueev,  
 S. M. Sharada,  S. Sharma,  D. W. Small,  A. Sodt,  T. Stauch,  T. Stein,  
 D. Stuck,  Y.-C. Su,  A. J. W. Thom,  T. Tsuchimochi,  L. Vogt,  O. Vydrov,  
 T. Wang,  M. A. Watson,  J. Wenzel,  A. White,  C. F. Williams,  
 V. Vanovschi,  S. Yeganeh,  S. R. Yost,  Z.-Q. You,  I. Y. Zhang,  X. Zhang,  
 Y. Zhao,  B. R. Brooks,  G. K. L. Chan,  D. M. Chipman,  C. J. Cramer,  
 W. A. Goddard III,  M. S. Gordon,  W. J. Hehre,  A. Klamt,  
 H. F. Schaefer III,  M. W. Schmidt,  C. D. Sherrill,  D. G. Truhlar,  
 A. Warshel,  X. Xu,  A. Aspuru-Guzik,  R. Baer,  A. T. Bell,  N. A. Besley,  
 J.-D. Chai,  A. Dreuw,  B. D. Dunietz,  T. R. Furlani,  S. R. Gwaltney,  
 C.-P. Hsu,  Y. Jung,  J. Kong,  D. S. Lambrecht,  W. Liang,  C. Ochsenfeld,  
 V. A. Rassolov,  L. V. Slipchenko,  J. E. Subotnik,  T. Van Voorhis,  
 J. M. Herbert,  A. I. Krylov,  P. M. W. Gill,  M. Head-Gordon

 Contributors to earlier versions of Q-Chem not listed above: 
 R. D. Adamson,  J. Baker,  E. F. C. Byrd,  A. K. Chakraborty,  C.-L. Cheng,  
 H. Dachsel,  R. J. Doerksen,  G. Hawkins,  A. Heyden,  S. Hirata,  
 G. Kedziora,  F. J. Keil,  C. Kelley,  P. P. Korambath,  W. Kurlancheek,  
 A. M. Lee,  M. S. Lee,  D. Liotard,  I. Lotan,  P. E. Maslen,  N. Nair,  
 D. Neuhauser,  R. Olson,  B. Peters,  J. Ritchie,  N. E. Schultz,  
 N. Shenvi,  A. C. Simmonett,  K. S. Thanthiriwatte,  Q. Wu,  W. Zhang

 Please cite Q-Chem as follows:
 Y. Shao et al., Mol. Phys. 113, 184-215 (2015)
 DOI: 10.1080/00268976.2014.952696

 Q-Chem 4.4.1 for Intel X86 Linux

 Parts of Q-Chem use Armadillo 5.200.1 (Boston Tea Smuggler).
 http://arma.sourceforge.net/

 Q-Chem begins on Tue Jan 21 14:52:10 2020  

Host: 
0

     Scratch files written to /tmp/5795493.priya/ZrOx.save//
 Jul2716 11668_ 21447  21445 5558   
 Parallel job on  1  processors
Processing $rem in /usr/usc/qchem/4.4/config/preferences.
 MEM_TOTAL  2000 

Checking the input file for inconsistencies... 	...done.

--------------------------------------------------------------
User input:
--------------------------------------------------------------
$comment
--------------------------------------------------------
A SINGLE POINT DFT CALCULATION WITH BASIS SET PROJECTION
--------------------------------------------------------
$end

$molecule
0 1
Zr 0.00000 0.00000 0.29786
S -1.34899 0.00000 -0.74741
O 1.34899 0.00000 -0.74741
$end

$rem
JOBTYPE   SP
METHOD   B3LYP
BASIS   GEN
ECP   GEN
MAX_SCF_CYCLES   200
SCF_CONVERGENCE 8
SCF_PRINT 1
PDB_PRINT 2
THRESH 14
VARTHRESH 14
INCDFT FALSE
SYMMETRY False
Sym_ignore True
SCF_ALGORITHM GDM
XC_GRID 000128000302
DFT_D           EMPIRICAL_GRIMME3
DFT_D3_S6       1000
DFT_D3_RS6     1261
DFT_D3_S8      1703
DFT_D3_3BODY    FALSE
$end

$basis
O
6-31+G**
****
S
6-31+G**
****
Zr
LanL2DZ
****
$end

$ecp
Zr
LanL2DZ
****
$end

--------------------------------------------------------------
 ----------------------------------------------------------------
             Standard Nuclear Orientation (Angstroms)
    I     Atom           X                Y                Z
 ----------------------------------------------------------------
    1      Zr      0.0000000000     0.0000000000     0.2978600000
    2      S      -1.3489900000     0.0000000000    -0.7474100000
    3      O       1.3489900000     0.0000000000    -0.7474100000
 ----------------------------------------------------------------
 Nuclear Repulsion Energy =   114.4094239286 hartrees
 There are       18 alpha and       18 beta electrons

 Q-Chem warning in module /home/scratch/svnadmin/11668_zgan/qchem/forms1/BasisType.C, line 1419:

 Setting pure/cartesian flag to 2111 for general basis


 Requested basis set is non-standard
 There are 19 shells and 62 basis functions

 Total QAlloc Memory Limit   2000 MB
 Mega-Array Size        61 MB
 MEM_STATIC part        62 MB

                       Distance Matrix (Angstroms)
             Zr(  1)   S (  2)
   S (  2)  1.706565
   O (  3)  1.706565  2.697980
 
 A cutoff of  1.0D-14 yielded    188 shell pairs
 There are      2039 function pairs (      2317 Cartesian)
 
 -------------------------------------------------------
 OpenMP Integral Computing Module                       
 Release: version 1.0, May 2013, Q-Chem Inc. Pittsburgh 
 -------------------------------------------------------
 Integral Job Info:
 Integral job number is                      11
 Integral operator is                         1
 short-range coefficients                     0
 long-range coefficients              100000000
 Omega coefficients                           0
 if combine SR and LR in K                    0
 Integral screening is                        0
 Integral computing path is                   2
 max size of driver memory is            800000
 size of driver memory is                593474
 size of scratch memory is             15166112
 max col of scratch BK array               1296
 max len of scratch array in speh3          155
 max len of scratch index in speh4           18
 max int batch size is                      520
 min int batch size is                       52
 fixed nKL is                                52
 max L of basis functions is                  2
 order of int derivative is                   0
 number of shells is                         19
 number of basis is                          66
 number of cartesian basis is                66
 number of contracted shell pairs           188
 number of primitive shell pairs           1125
 maxK2 (contraction) of shell pair           36
 max number of K2 of shell pair               1
 max number of CS2 of shell pair             12
 max number of PS2 of shell pair             72
 mem total for path MDJ                   13912
 -------------------------------------------------------
 Requested basis set is non-standard
 Compound shells will be simplified
 There are 26 shells and 62 basis functions
 A cutoff of  1.0D-14 yielded    348 shell pairs
 There are      2018 function pairs (      2296 Cartesian)
 Smallest overlap matrix eigenvalue = 8.00E-04

 Scale SEOQF with 1.000000e-01/1.000000e-01/1.000000e-01

 Standard Electronic Orientation quadrupole field applied
 Guess MOs from core Hamiltonian diagonalization
 A restricted hybrid HF-DFT SCF calculation will be
 performed using Geometric Direct Minimization
 Exchange:     0.2000 Hartree-Fock + 0.0800 Slater + 0.7200 B88
 Correlation:  0.1900 VWN1RPA + 0.8100 LYP
 Using Euler-Maclaurin-Lebedev (128,302) quadrature formula
 Dispersion:   Grimme D3
 SCF converges when RMS gradient is below 1.0E-08
 Maximum number of minimization steps = 200
 using 12 threads for integral computing 
 -------------------------------------------------------
 OpenMP BLAS3 based DFT computing Module                
 Release: version 1.0, May 2013, Q-Chem Inc. Pittsburgh 
 -------------------------------------------------------
 
   ------------------- Entering Geometric Direct Minimization ------------------
   GDM:         diagonal hessian shift is      0.000000000000000E+000
   GDM::PreWSS: input subspace size is                  1
   GDM::PreWSS: working subspace size set to            1
   GDM::PrEWSS: # of linearly dependent vectors =            0
   GDM::PrEWSS: Max dev from orthonormality =   2.220446049250313E-016
   GDM::BFGS:   lowest Hinv e-value     1.00000000000000     
   GDM::BFGS:   highest Hinv e-value    1.00000000000000     
   GDM::      : max scaling in EWCs is          1.41421356237309     
   GDM::      : max rotation in step is       -0.162745981075460     
   GDM::        grad.step =   -1.78066511304331     
   ------- Leaving GDM -- hopefully with a step in the right direction! --------
 
 ---------------------------------------
  Cycle       Energy        RMS Gradient
 ---------------------------------------
    1    -505.3616976978      1.88E+00  Gap = 0.00 eV  Descent step
 
   ------------------- Entering Geometric Direct Minimization ------------------
   GDM::trust : actual energy change is        -3.40639450559723     
   GDM::trust : predicted energy change was   -0.163350000000000     
   GDM::trust : updated trust radius is        0.330000000000000     
   GDM:         diagonal hessian shift is      0.000000000000000E+000
   GDM::PreWSS: input subspace size is                  2
   GDM::PreWSS: working subspace size set to            2
   GDM::PrEWSS: # of linearly dependent vectors =            0
   GDM::PrEWSS: Max dev from orthonormality =   3.663735981263017E-015
   GDM::BFGS:   lowest Hinv e-value    0.530990072982835     
   GDM::BFGS:   highest Hinv e-value    1.80775947021152     
   GDM::      : max scaling in EWCs is          1.41421356237309     
   GDM::      : max rotation in step is       -0.195707100507327     
   GDM::        grad.step =   -1.60923326783785     
   ------- Leaving GDM -- hopefully with a step in the right direction! --------
 
    2    -508.7680922034      2.04E+00  Gap = 230.65 eV  Descent step
 
   ------------------- Entering Geometric Direct Minimization ------------------
   GDM::trust : actual energy change is        -3.07529815591812     
   GDM::trust : predicted energy change was   -0.146443863560529     
   GDM::trust : updated trust radius is        0.330000000000000     
   GDM:         diagonal hessian shift is      0.000000000000000E+000
   GDM::PreWSS: input subspace size is                  3
   GDM::PreWSS: working subspace size set to            3
   GDM::PrEWSS: # of linearly dependent vectors =            0
   GDM::PrEWSS: Max dev from orthonormality =   7.983197436445266E-014
   GDM::BFGS:   lowest Hinv e-value    0.438165809417540     
   GDM::BFGS:   highest Hinv e-value    1.52221587095063     
   GDM::      : max scaling in EWCs is          1.41421356237309     
   GDM::      : max rotation in step is       -0.197489433755741     
   GDM::        grad.step =   -1.51296694337101     
   ------- Leaving GDM -- hopefully with a step in the right direction! --------
 
    3    -511.8433903593      1.98E+00  Gap = 0.00 eV  Descent step
 
   ------------------- Entering Geometric Direct Minimization ------------------
   GDM::trust : actual energy change is        -2.70990870078106     
   GDM::trust : predicted energy change was   -0.172242541353091     
   GDM::trust : updated trust radius is        0.330000000000000     
   GDM:         diagonal hessian shift is      0.000000000000000E+000
   GDM::PreWSS: input subspace size is                  4
   GDM::PreWSS: working subspace size set to            4
   GDM::PrEWSS: # of linearly dependent vectors =            0
   GDM::PrEWSS: Max dev from orthonormality =   5.065392549852277E-014
   GDM::BFGS:   lowest Hinv e-value    0.408868435990175     
   GDM::BFGS:   highest Hinv e-value    1.67059286211742     
   GDM::      : max scaling in EWCs is          1.41421356237309     
   GDM::      : max rotation in step is       -0.166513382080613     
   GDM::        grad.step =   -1.02586959623964     
   ------- Leaving GDM -- hopefully with a step in the right direction! --------
 
    4    -514.5532990601      1.11E+00  Gap = 0.00 eV  Descent step
 
   ------------------- Entering Geometric Direct Minimization ------------------
   GDM::trust : actual energy change is        -1.88831429078630     
   GDM::trust : predicted energy change was   -0.164470160814057     
   GDM::trust : updated trust radius is        0.330000000000000     
   GDM:         diagonal hessian shift is      0.000000000000000E+000
   GDM::PreWSS: input subspace size is                  5
   GDM::PreWSS: working subspace size set to            5
   GDM::PrEWSS: # of linearly dependent vectors =            0
   GDM::PrEWSS: Max dev from orthonormality =   1.432683832680581E-012
   GDM::BFGS:   lowest Hinv e-value    0.370089482116152     
   GDM::BFGS:   highest Hinv e-value    1.77194471374240     
   GDM::      : max scaling in EWCs is          2.82842712474619     
   GDM::      : max rotation in step is        0.338231634212892     
   GDM::        grad.step =  -0.934960986795008     
   ------- Leaving GDM -- hopefully with a step in the right direction! --------
 
    5    -516.4416133508      1.03E+00  Gap = 0.00 eV  Descent step
 
   ------------------- Entering Geometric Direct Minimization ------------------
   GDM::trust : actual energy change is        -1.56021971948314     
   GDM::trust : predicted energy change was   -0.161767724992304     
   GDM::trust : updated trust radius is        0.330000000000000     
   GDM:         diagonal hessian shift is      0.000000000000000E+000
   GDM::PreWSS: input subspace size is                  6
   GDM::PreWSS: working subspace size set to            6
   GDM::PrEWSS: # of linearly dependent vectors =            0
   GDM::PrEWSS: Max dev from orthonormality =   9.476516793505141E-013
   GDM::BFGS:   lowest Hinv e-value    0.299023800342748     
   GDM::BFGS:   highest Hinv e-value    1.90443546578021     
   GDM::      : max scaling in EWCs is          2.82842712474619     
   GDM::      : max rotation in step is        0.282773063009803     
   GDM::        grad.step =  -0.775176892167222     
   ------- Leaving GDM -- hopefully with a step in the right direction! --------
 
    6    -518.0018330703      7.12E-01  Gap = 0.00 eV  Descent step
 
   ------------------- Entering Geometric Direct Minimization ------------------
   GDM::trust : actual energy change is        -1.08225038631508     
   GDM::trust : predicted energy change was   -0.165354571606545     
   GDM::trust : updated trust radius is        0.330000000000000     
   GDM:         diagonal hessian shift is      0.000000000000000E+000
   GDM::PreWSS: input subspace size is                  7
   GDM::PreWSS: working subspace size set to            7
   GDM::PrEWSS: # of linearly dependent vectors =            0
   GDM::PrEWSS: Max dev from orthonormality =   5.050126983263681E-013
   GDM::BFGS:   lowest Hinv e-value    0.278063074332675     
   GDM::BFGS:   highest Hinv e-value    2.07475507421387     
   GDM::      : max scaling in EWCs is          2.82842712474619     
   GDM::      : max rotation in step is       -0.247039149349143     
   GDM::        grad.step =  -0.314580919927373     
   ------- Leaving GDM -- hopefully with a step in the right direction! --------
 
    7    -519.0840834566      2.69E-01  Gap = 0.00 eV  Descent step
 
   ------------------- Entering Geometric Direct Minimization ------------------
   GDM::trust : actual energy change is       -0.470756602660344     
   GDM::trust : predicted energy change was   -0.181841515444997     
   GDM::trust : updated trust radius is        0.330000000000000     
   GDM:         diagonal hessian shift is      0.000000000000000E+000
   GDM::PreWSS: input subspace size is                  8
   GDM::PreWSS: working subspace size set to            8
   GDM::PrEWSS: # of linearly dependent vectors =            0
   GDM::PrEWSS: Max dev from orthonormality =   5.522318713424568E-013
   GDM::BFGS:   lowest Hinv e-value    0.293250587261039     
   GDM::BFGS:   highest Hinv e-value    2.32696471909671     
   GDM::      : max scaling in EWCs is          2.18977692616084     
   GDM::      : max rotation in step is        6.184873924522709E-002
   GDM::        grad.step =  -0.160010085423908     
   ------- Leaving GDM -- hopefully with a step in the right direction! --------
 
    8    -519.5548400593      9.90E-02  Gap = 0.00 eV  Descent step
 
   ------------------- Entering Geometric Direct Minimization ------------------
   GDM::trust : actual energy change is       -0.154843212766878     
   GDM::trust : predicted energy change was   -0.164638661392955     
   GDM::trust : updated trust radius is        0.330000000000000     
   GDM:         diagonal hessian shift is      0.000000000000000E+000
   GDM::PreWSS: input subspace size is                  9
   GDM::PreWSS: working subspace size set to            9
   GDM::PrEWSS: # of linearly dependent vectors =            0
   GDM::PrEWSS: Max dev from orthonormality =   8.103726023556135E-013
   GDM::BFGS:   lowest Hinv e-value    0.248258264726272     
   GDM::BFGS:   highest Hinv e-value    2.26735438047598     
   GDM::      : max scaling in EWCs is          2.82842712474619     
   GDM::      : max rotation in step is        0.208773598553976     
   GDM::        grad.step =  -0.135264670591583     
   ------- Leaving GDM -- hopefully with a step in the right direction! --------
 
    9    -519.7096832721      1.68E-01  Gap = 0.00 eV  Descent step
 
   ------------------- Entering Geometric Direct Minimization ------------------
   GDM::trust : actual energy change is        0.354326872610159     
   GDM::trust : predicted energy change was   -0.272403281724235     
   GDM::trust : updated trust radius is        0.108900000000000     
   GDM::search:  On step            1 .  The current bracket is:
       left   : x =  0.0000E+00, e =      -519.7096832721, g = -0.2717E+00
       current: x =  0.4978E+00, e =      -519.3553563995, g =  0.1121E+01
       right  : x =  0.1000E+04, e =      1000.0000000000, g =  0.1000E+04
       next   : x =  0.6877E-01
   GDM::      : max rotation in step is        2.884005292651308E-002
   ------- Leaving GDM -- hopefully with a step in the right direction! --------
 
   10    -519.3553563995      6.99E-02  Gap = 0.00 eV  Line search: overstep
 
   ------------------- Entering Geometric Direct Minimization ------------------
   GDM::trust : actual energy change is       -2.827202241894611E-002
   GDM::trust : predicted energy change was   -0.272403281724235     
   GDM::trust : updated trust radius is        0.108900000000000     
   GDM:         diagonal hessian shift is      0.000000000000000E+000
   GDM::PreWSS: input subspace size is                 10
   GDM::PreWSS: working subspace size set to           10
   GDM::PrEWSS: # of linearly dependent vectors =            0
   GDM::PrEWSS: Max dev from orthonormality =   9.404126782852629E-013
   GDM::BFGS:   lowest Hinv e-value    0.236027510195419     
   GDM::BFGS:   highest Hinv e-value    2.30038692952280     
   GDM::      : max scaling in EWCs is          2.46648342246708     
   GDM::      : max rotation in step is        5.872503865373725E-002
   GDM::        grad.step =  -2.147246095231198E-002
   ------- Leaving GDM -- hopefully with a step in the right direction! --------
 
   11    -519.7379552945      7.96E-02  Gap = 0.00 eV  Descent step
 
   ------------------- Entering Geometric Direct Minimization ------------------
   GDM::trust : actual energy change is       -5.936923073250000E-003
   GDM::trust : predicted energy change was   -2.783570738376706E-002
   GDM::trust : updated trust radius is        0.330000000000000     
   GDM:         diagonal hessian shift is      0.000000000000000E+000
   GDM::PreWSS: input subspace size is                 11
   GDM::PreWSS: working subspace size set to           11
   GDM::PrEWSS: # of linearly dependent vectors =            0
   GDM::PrEWSS: Max dev from orthonormality =   8.630526848740772E-013
   GDM::BFGS:   lowest Hinv e-value    0.248285160261290     
   GDM::BFGS:   highest Hinv e-value    2.39117935799573     
   GDM::      : max scaling in EWCs is          1.93738356502822     
   GDM::      : max rotation in step is       -3.760665397962647E-002
   GDM::        grad.step =  -1.907161736779380E-002
   ------- Leaving GDM -- hopefully with a step in the right direction! --------
 
   12    -519.7438922176      8.75E-02  Gap = 0.00 eV  Normal BFGS step
 
   ------------------- Entering Geometric Direct Minimization ------------------
   GDM::trust : actual energy change is       -1.401009271489784E-002
   GDM::trust : predicted energy change was   -2.860742605169070E-002
   GDM::trust : updated trust radius is        0.330000000000000     
   GDM:         diagonal hessian shift is      0.000000000000000E+000
   GDM::PreWSS: input subspace size is                 12
   GDM::PreWSS: working subspace size set to           12
   GDM::PrEWSS: # of linearly dependent vectors =            0
   GDM::PrEWSS: Max dev from orthonormality =   3.860002595335033E-012
   GDM::BFGS:   lowest Hinv e-value    0.225926930687434     
   GDM::BFGS:   highest Hinv e-value    2.28460436496379     
   GDM::      : max scaling in EWCs is          2.13480070206047     
   GDM::      : max rotation in step is        1.697266332582905E-002
   GDM::        grad.step =  -2.533764659346275E-003
   ------- Leaving GDM -- hopefully with a step in the right direction! --------
 
   13    -519.7579023103      1.67E-02  Gap = 0.00 eV  Normal BFGS step
 
   ------------------- Entering Geometric Direct Minimization ------------------
   GDM::trust : actual energy change is       -1.429982536137686E-003
   GDM::trust : predicted energy change was   -3.800646989019413E-003
   GDM::trust : updated trust radius is        0.330000000000000     
   GDM:         diagonal hessian shift is      0.000000000000000E+000
   GDM::PreWSS: input subspace size is                 13
   GDM::PreWSS: working subspace size set to           13
   GDM::PrEWSS: # of linearly dependent vectors =            0
   GDM::PrEWSS: Max dev from orthonormality =   4.092795546917216E-012
   GDM::BFGS:   lowest Hinv e-value    0.242682084222857     
   GDM::BFGS:   highest Hinv e-value    2.14389432172395     
   GDM::      : max scaling in EWCs is          2.11327276935736     
   GDM::      : max rotation in step is        7.084251301680961E-003
   GDM::        grad.step =  -7.527708322078741E-004
   ------- Leaving GDM -- hopefully with a step in the right direction! --------
 
   14    -519.7593322928      8.32E-03  Gap = 0.00 eV  Normal BFGS step
 
   ------------------- Entering Geometric Direct Minimization ------------------
   GDM::trust : actual energy change is       -3.417517261823377E-004
   GDM::trust : predicted energy change was   -1.129156248311811E-003
   GDM::trust : updated trust radius is        0.330000000000000     
   GDM:         diagonal hessian shift is      0.000000000000000E+000
   GDM::PreWSS: input subspace size is                 14
   GDM::PreWSS: working subspace size set to           14
   GDM::PrEWSS: # of linearly dependent vectors =            0
   GDM::PrEWSS: Max dev from orthonormality =   3.010174054463022E-011
   GDM::BFGS:   lowest Hinv e-value    0.244160210577334     
   GDM::BFGS:   highest Hinv e-value    2.00091200457476     
   GDM::      : max scaling in EWCs is          2.06573087200594     
   GDM::      : max rotation in step is        4.540392030975856E-003
   GDM::        grad.step =  -3.060784254663656E-004
   ------- Leaving GDM -- hopefully with a step in the right direction! --------
 
   15    -519.7596740445      6.38E-03  Gap = 0.00 eV  Normal BFGS step
 
   ------------------- Entering Geometric Direct Minimization ------------------
   GDM::trust : actual energy change is       -1.682633429709313E-004
   GDM::trust : predicted energy change was   -4.591176381995484E-004
   GDM::trust : updated trust radius is        0.330000000000000     
   GDM:         diagonal hessian shift is      0.000000000000000E+000
   GDM::PreWSS: input subspace size is                 15
   GDM::PreWSS: working subspace size set to           15
   GDM::PrEWSS: # of linearly dependent vectors =            0
   GDM::PrEWSS: Max dev from orthonormality =   7.508326599348081E-011
   GDM::BFGS:   lowest Hinv e-value    0.243646386355997     
   GDM::BFGS:   highest Hinv e-value    2.09567911071583     
   GDM::      : max scaling in EWCs is          2.08504836800838     
   GDM::      : max rotation in step is        2.955223054940052E-003
   GDM::        grad.step =  -8.388515604656200E-005
   ------- Leaving GDM -- hopefully with a step in the right direction! --------
 
   16    -519.7598423079      3.11E-03  Gap = 0.00 eV  Normal BFGS step
 
   ------------------- Entering Geometric Direct Minimization ------------------
   GDM::trust : actual energy change is       -5.579104026764981E-005
   GDM::trust : predicted energy change was   -1.258277340698430E-004
   GDM::trust : updated trust radius is        0.330000000000000     
   GDM:         diagonal hessian shift is      0.000000000000000E+000
   GDM::PreWSS: input subspace size is                 16
   GDM::PreWSS: working subspace size set to           16
   GDM::PrEWSS: # of linearly dependent vectors =            0
   GDM::PrEWSS: Max dev from orthonormality =   2.000555068826237E-010
   GDM::BFGS:   lowest Hinv e-value    0.237983056170777     
   GDM::BFGS:   highest Hinv e-value    2.00350018284564     
   GDM::      : max scaling in EWCs is          2.08323033844458     
   GDM::      : max rotation in step is        1.908718364403415E-003
   GDM::        grad.step =  -1.604716767582463E-005
   ------- Leaving GDM -- hopefully with a step in the right direction! --------
 
   17    -519.7598980989      1.04E-03  Gap = 0.00 eV  Normal BFGS step
 
   ------------------- Entering Geometric Direct Minimization ------------------
   GDM::trust : actual energy change is       -1.084094060388452E-005
   GDM::trust : predicted energy change was   -2.407075151373695E-005
   GDM::trust : updated trust radius is        0.330000000000000     
   GDM:         diagonal hessian shift is      0.000000000000000E+000
   GDM::PreWSS: input subspace size is                 17
   GDM::PreWSS: working subspace size set to           17
   GDM::PrEWSS: # of linearly dependent vectors =            1
   GDM::PrEWSS: Max dev from orthonormality =   4.957106877756523E-010
   GDM::BFGS:   lowest Hinv e-value    0.241726790389063     
   GDM::BFGS:   highest Hinv e-value    1.99385179560539     
   GDM::      : max scaling in EWCs is          2.08314950833765     
   GDM::      : max rotation in step is       -7.191734952185561E-004
   GDM::        grad.step =  -2.328235368287560E-006
   ------- Leaving GDM -- hopefully with a step in the right direction! --------
 
   18    -519.7599089399      4.62E-04  Gap = 0.00 eV  Normal BFGS step
 
   ------------------- Entering Geometric Direct Minimization ------------------
   GDM::trust : actual energy change is       -1.981109676307824E-006
   GDM::trust : predicted energy change was   -3.492353052431339E-006
   GDM::trust : updated trust radius is        0.330000000000000     
   GDM:         diagonal hessian shift is      0.000000000000000E+000
   GDM::PreWSS: input subspace size is                 18
   GDM::PreWSS: working subspace size set to           18
   GDM::PrEWSS: # of linearly dependent vectors =            2
   GDM::PrEWSS: Max dev from orthonormality =   1.454787887378295E-010
   GDM::BFGS:   lowest Hinv e-value    0.239664698575703     
   GDM::BFGS:   highest Hinv e-value    1.98916355294208     
   GDM::      : max scaling in EWCs is          2.08244339639306     
   GDM::      : max rotation in step is        8.295306546437153E-005
   GDM::        grad.step =  -1.183371464900873E-007
   ------- Leaving GDM -- hopefully with a step in the right direction! --------
 
   19    -519.7599109210      9.00E-05  Gap = 0.00 eV  Normal BFGS step
 
   ------------------- Entering Geometric Direct Minimization ------------------
   GDM::trust : actual energy change is       -9.761151886777952E-008
   GDM::trust : predicted energy change was   -1.775057197351309E-007
   GDM::trust : updated trust radius is        0.330000000000000     
   GDM:         diagonal hessian shift is      0.000000000000000E+000
   GDM::PreWSS: input subspace size is                 19
   GDM::PreWSS: working subspace size set to           18
   GDM::PrEWSS: # of linearly dependent vectors =            2
   GDM::PrEWSS: Max dev from orthonormality =   2.771354465358478E-010
   GDM::BFGS:   lowest Hinv e-value    0.241602259203727     
   GDM::BFGS:   highest Hinv e-value    1.76858271507812     
   GDM::      : max scaling in EWCs is          2.08271897030280     
   GDM::      : max rotation in step is       -2.213792932126189E-005
   GDM::        grad.step =  -9.240285257033442E-009
   ------- Leaving GDM -- hopefully with a step in the right direction! --------
 
   20    -519.7599110186      4.75E-05  Gap = 0.00 eV  Normal BFGS step
 
   ------------------- Entering Geometric Direct Minimization ------------------
   GDM::trust : actual energy change is       -8.322103894897737E-009
   GDM::trust : predicted energy change was   -1.386042788555016E-008
   GDM::trust : updated trust radius is        0.330000000000000     
   GDM:         diagonal hessian shift is      0.000000000000000E+000
   GDM::PreWSS: input subspace size is                 19
   GDM::PreWSS: working subspace size set to           18
   GDM::PrEWSS: # of linearly dependent vectors =            1
   GDM::PrEWSS: Max dev from orthonormality =   3.029818305966270E-010
   GDM::BFGS:   lowest Hinv e-value    0.241972254790368     
   GDM::BFGS:   highest Hinv e-value    1.40537249175802     
   GDM::      : max scaling in EWCs is          2.08269978292265     
   GDM::      : max rotation in step is       -5.514635259113695E-006
   GDM::        grad.step =  -1.300697936895342E-009
   ------- Leaving GDM -- hopefully with a step in the right direction! --------
 
   21    -519.7599110269      1.21E-05  Gap = 0.00 eV  Normal BFGS step
 
   ------------------- Entering Geometric Direct Minimization ------------------
   GDM::trust : actual energy change is       -1.440298547095153E-009
   GDM::trust : predicted energy change was   -1.951046905343014E-009
   GDM::trust : updated trust radius is        0.330000000000000     
   GDM:         diagonal hessian shift is      0.000000000000000E+000
   GDM::PreWSS: input subspace size is                 19
   GDM::PreWSS: working subspace size set to           17
   GDM::PrEWSS: # of linearly dependent vectors =            0
   GDM::PrEWSS: Max dev from orthonormality =   4.481105417286635E-010
   GDM::BFGS:   lowest Hinv e-value    0.240826882201648     
   GDM::BFGS:   highest Hinv e-value    1.40029414425962     
   GDM::      : max scaling in EWCs is          2.08268027881027     
   GDM::      : max rotation in step is       -6.094323959439056E-006
   GDM::        grad.step =  -3.773510919660332E-010
   ------- Leaving GDM -- hopefully with a step in the right direction! --------
 
   22    -519.7599110283      7.78E-06  Gap = 0.00 eV  Normal BFGS step
 
   ------------------- Entering Geometric Direct Minimization ------------------
   GDM::trust : actual energy change is       -3.705054041347466E-010
   GDM::trust : predicted energy change was   -5.660266379490498E-010
   GDM::trust : updated trust radius is        0.330000000000000     
   GDM:         diagonal hessian shift is      0.000000000000000E+000
   GDM::PreWSS: input subspace size is                 18
   GDM::PreWSS: working subspace size set to           15
   GDM::PrEWSS: # of linearly dependent vectors =            0
   GDM::PrEWSS: Max dev from orthonormality =   5.853652632059614E-011
   GDM::BFGS:   lowest Hinv e-value    0.235798133006996     
   GDM::BFGS:   highest Hinv e-value    1.52881829449714     
   GDM::      : max scaling in EWCs is          2.08268551081667     
   GDM::      : max rotation in step is        2.121066465831706E-006
   GDM::        grad.step =  -4.690702886206310E-011
   ------- Leaving GDM -- hopefully with a step in the right direction! --------
 
   23    -519.7599110287      2.31E-06  Gap = 0.00 eV  Normal BFGS step
 
   ------------------- Entering Geometric Direct Minimization ------------------
   GDM::trust : actual energy change is       -2.569322532508522E-011
   GDM::trust : predicted energy change was   -7.036054329309465E-011
   GDM::trust : updated trust radius is        0.330000000000000     
   GDM:         diagonal hessian shift is      0.000000000000000E+000
   GDM::PreWSS: input subspace size is                 16
   GDM::PreWSS: working subspace size set to           15
   GDM::PrEWSS: # of linearly dependent vectors =            0
   GDM::PrEWSS: Max dev from orthonormality =   8.472851587004726E-011
   GDM::BFGS:   lowest Hinv e-value    0.228251338421922     
   GDM::BFGS:   highest Hinv e-value    1.34191651282630     
   GDM::      : max scaling in EWCs is          2.08269367351532     
   GDM::      : max rotation in step is       -7.661714235130645E-007
   GDM::        grad.step =  -1.082995831762230E-011
   ------- Leaving GDM -- hopefully with a step in the right direction! --------
 
   24    -519.7599110287      1.42E-06  Gap = 0.00 eV  Normal BFGS step
 
   ------------------- Entering Geometric Direct Minimization ------------------
   GDM::trust : actual energy change is       -8.867573342286050E-012
   GDM::trust : predicted energy change was   -1.624493747643345E-011
   GDM::trust : updated trust radius is        0.330000000000000     
   GDM:         diagonal hessian shift is      0.000000000000000E+000
   GDM::PreWSS: input subspace size is                 16
   GDM::PreWSS: working subspace size set to           13
   GDM::PrEWSS: # of linearly dependent vectors =            0
   GDM::PrEWSS: Max dev from orthonormality =   3.946990304037890E-011
   GDM::BFGS:   lowest Hinv e-value    0.324481321592003     
   GDM::BFGS:   highest Hinv e-value    1.82271018505072     
   GDM::      : max scaling in EWCs is          2.08268781233684     
   GDM::      : max rotation in step is        2.002686203734233E-007
   GDM::        grad.step =  -3.086751808055526E-013
   ------- Leaving GDM -- hopefully with a step in the right direction! --------
 
   25    -519.7599110287      1.44E-07  Gap = 0.00 eV  Normal BFGS step
 
   ------------------- Entering Geometric Direct Minimization ------------------
   GDM::trust : actual energy change is        2.273736754432321E-013
   GDM::trust : predicted energy change was   -4.630127712083288E-013
   GDM::trust : updated trust radius is        0.108900000000000     
   GDM::WARNING energy changes are now smaller than effective accuracy.
   GDM::        calculation will continue, but THRESH should be increased
   GDM::        or SCF_CONVERGENCE decreased.
   GDM::        effective_thresh =   4.957106877756523E-010
   GDM:         diagonal hessian shift is      0.000000000000000E+000
   GDM::PreWSS: input subspace size is                 14
   GDM::PreWSS: working subspace size set to           12
   GDM::PrEWSS: # of linearly dependent vectors =            0
   GDM::PrEWSS: Max dev from orthonormality =   1.076887884421396E-011
   GDM::BFGS:   lowest Hinv e-value    0.353127077740363     
   GDM::BFGS:   highest Hinv e-value    1.89701706419439     
   GDM::      : max scaling in EWCs is          2.08268813939928     
   GDM::      : max rotation in step is       -6.603201617045703E-008
   GDM::        grad.step =  -4.186669160372355E-014
   ------- Leaving GDM -- hopefully with a step in the right direction! --------
 
   26    -519.7599110287      7.45E-08  Gap = 0.00 eV  Normal BFGS step
 
   ------------------- Entering Geometric Direct Minimization ------------------
   GDM::trust : actual energy change is       -7.958078640513122E-013
   GDM::trust : predicted energy change was   -6.280003740558533E-014
   GDM::trust : updated trust radius is        0.330000000000000     
   GDM:         diagonal hessian shift is      0.000000000000000E+000
   GDM::PreWSS: input subspace size is                 13
   GDM::PreWSS: working subspace size set to           13
   GDM::PrEWSS: # of linearly dependent vectors =            1
   GDM::PrEWSS: Max dev from orthonormality =   3.827901884356777E-011
   GDM::BFGS:   lowest Hinv e-value    0.231643344071056     
   GDM::BFGS:   highest Hinv e-value    1.43805557355881     
   GDM::      : max scaling in EWCs is          2.08268914986834     
   GDM::      : max rotation in step is       -6.677757301070037E-008
   GDM::        grad.step =  -5.619994553922022E-014
   ------- Leaving GDM -- hopefully with a step in the right direction! --------
 
   27    -519.7599110287      1.71E-07  Gap = 0.00 eV  Normal BFGS step
 
   ------------------- Entering Geometric Direct Minimization ------------------
   GDM::trust : actual energy change is        0.000000000000000E+000
   GDM::trust : predicted energy change was   -8.429991830883034E-014
   GDM::trust : updated trust radius is        0.330000000000000     
   GDM:         diagonal hessian shift is      0.000000000000000E+000
   GDM::PreWSS: input subspace size is                 14
   GDM::PreWSS: working subspace size set to           12
   GDM::PrEWSS: # of linearly dependent vectors =            0
   GDM::PrEWSS: Max dev from orthonormality =   3.771370368776950E-011
   GDM::BFGS:   lowest Hinv e-value    0.235391221884050     
   GDM::BFGS:   highest Hinv e-value    1.52443999965993     
   GDM::      : max scaling in EWCs is          2.08268835875238     
   GDM::      : max rotation in step is        1.629116171912804E-008
   GDM::        grad.step =  -2.948314456349128E-015
   ------- Leaving GDM -- hopefully with a step in the right direction! --------
 
   28    -519.7599110287      1.34E-08  Gap = 0.00 eV  Normal BFGS step
 
   ------------------- Entering Geometric Direct Minimization ------------------
   GDM::trust : actual energy change is        7.958078640513122E-013
   GDM::trust : predicted energy change was   -4.422471684523691E-015
   GDM::trust : updated trust radius is        0.108900000000000     
   GDM::WARNING energy changes are now smaller than effective accuracy.
   GDM::        calculation will continue, but THRESH should be increased
   GDM::        or SCF_CONVERGENCE decreased.
   GDM::        effective_thresh =   4.957106877756523E-010
   GDM:         diagonal hessian shift is      0.000000000000000E+000
   GDM::PreWSS: input subspace size is                 13
   GDM::PreWSS: working subspace size set to           12
   GDM::PrEWSS: # of linearly dependent vectors =            0
   GDM::PrEWSS: Max dev from orthonormality =   8.633987275130650E-011
   GDM::BFGS:   lowest Hinv e-value    0.240587603463767     
   GDM::BFGS:   highest Hinv e-value    1.40620009298416     
   GDM::      : max scaling in EWCs is          2.08268837751698     
   GDM::      : max rotation in step is        8.489722129836933E-009
   GDM::        grad.step =  -6.450842786017908E-016
   ------- Leaving GDM -- hopefully with a step in the right direction! --------
 
   29    -519.7599110287      7.14E-09 Convergence criterion met
 ---------------------------------------
 One-Electron    Energy =  -960.6296203522
 Total Coulomb   Energy =   367.0159984997
 Alpha Exchange  Energy =    -3.8930478892
 Beta  Exchange  Energy =    -3.8930478892
 DFT   Exchange  Energy =   -31.0613385918
 DFT Correlation Energy =    -1.7082787347
 Nuclear Repu.   Energy =   114.4094239286
 Nuclear Attr.   Energy = -1458.8109711389
 Kinetic         Energy =   498.1813507867
 SCF time:  CPU 68.17 s  wall 11.35 s
 SCF   energy in the final basis set = -519.7599110287
 Total energy in the final basis set = -519.7599110287
 
 --------------------------------------------------------------
 
                    Orbital Energies (a.u.)
 --------------------------------------------------------------
 
 Alpha MOs
 -- Occupied --
-88.792 -19.083  -7.902  -5.865  -5.857  -5.854  -2.000  -1.270
 -1.222  -1.188  -0.802  -0.612  -0.353  -0.331  -0.304  -0.294
 -0.246  -0.218
 -- Virtual --
 -0.103  -0.054  -0.048   0.005   0.025   0.029   0.031   0.043
  0.055   0.084   0.088   0.110   0.129   0.143   0.156   0.200
  0.213   0.243   0.249   0.253   0.258   0.283   0.293   0.323
  0.506   0.536   0.562   0.597   0.794   0.807   0.884   0.896
  0.989   1.009   1.214   1.249   1.293   1.694   1.849   1.858
  1.886   1.927   2.091  13.958
 --------------------------------------------------------------
 
          Ground-State Mulliken Net Atomic Charges

     Atom                 Charge (a.u.)
  ----------------------------------------
      1 Zr                    0.845804
      2 S                    -0.248409
      3 O                    -0.597396
  ----------------------------------------
  Sum of atomic charges =     0.000000

 -----------------------------------------------------------------
                    Cartesian Multipole Moments
 -----------------------------------------------------------------
    Charge (ESU x 10^10)
                 0.0000
    Dipole Moment (Debye)
         X      -1.6103      Y       0.0000      Z       5.8227
       Tot       6.0413
    Quadrupole Moments (Debye-Ang)
        XX     -47.7397     XY       0.0000     YY     -33.5717
        XZ       1.2511     YZ       0.0000     ZZ     -38.5129
    Octopole Moments (Debye-Ang^2)
       XXX      27.6821    XXY       0.0000    XYY       9.9906
       YYY       0.0000    XXZ      16.8639    XYZ       0.0000
       YYZ      12.2675    XZZ       9.0356    YZZ       0.0000
       ZZZ      36.3588
    Hexadecapole Moments (Debye-Ang^3)
      XXXX    -297.6023   XXXY       0.0000   XXYY     -53.3665
      XYYY       0.0000   YYYY     -38.7300   XXXZ     -19.7863
      XXYZ       0.0000   XYYZ      -7.1851   YYYZ       0.0000
      XXZZ     -73.2246   XYZZ       0.0000   YYZZ     -26.2727
      XZZZ     -24.3176   YZZZ       0.0000   ZZZZ    -126.9720
 -----------------------------------------------------------------
Archival summary:
1\1\hpc0241\SP\ProcedureUnspecified\BasisUnspecified\r111(\liqiuy\TueJan2114:52:222020TueJan2114:52:222020\0\\#,ProcedureUnspecified,BasisUnspecified,\\28,1\Zr\O,1,1.70656\S,1,1.70656,2,104.459\\\@

 Total job time:  12.50s(wall), 72.51s(cpu) 
 Tue Jan 21 14:52:22 2020

        *************************************************************
        *                                                           *
        *  Thank you very much for using Q-Chem.  Have a nice day.  *
        *                                                           *
        *************************************************************


0 sent ACK to 0 
now end server 0 ... 
cleanup process ... done

Running Job 2 of 2 ZrOx.in
qchem ZrOx.in_11665.1 /tmp/5795493.priya/ZrOx.save/ 1
/usr/usc/qchem/4.4/bin/mpi/mpirun_qchem -machinefile /usr/usc/qchem/4.4/bin/mpi/machines -np 1 /usr/usc/qchem/4.4/exe/qcprog.exe ZrOx.in_11665.1 /tmp/5795493.priya/ZrOx.save/

Process 0 of 1 is on hpc0241.hpcc.usc.edu - thread support 0
initial socket setup ...start
initial socket setup ...done 
now start server 0 ... 
Check license passed

                  Welcome to Q-Chem
     A Quantum Leap Into The Future Of Chemistry


 Q-Chem 4.4, Q-Chem, Inc., Pleasanton, CA (2016)

 Y. Shao,  Z. Gan,  E. Epifanovsky,  A. T. B. Gilbert,  M. Wormit,  
 J. Kussmann,  A. W. Lange,  A. Behn,  J. Deng,  X. Feng,  D. Ghosh,  
 M. Goldey,  P. R. Horn,  L. D. Jacobson,  I. Kaliman,  F.Rob,  
 R. Z. Khaliullin,  T. Kus,  A. Landau,  J. Liu,  E. I. Proynov,  Y. M. Rhee,  
 R. M. Richard,  M. A. Rohrdanz,  R. P. Steele,  E. J. Sundstrom,  
 H. L. Woodcock III,  P. M. Zimmerman,  D. Zuev,  B. Albrecht,  E. Alguire,  
 B. Austin,  S. A. Baeppler,  G. J. O. Beran,  Y. A. Bernard,  E. Berquist,  
 K. Brandhorst,  K. B. Bravaya,  S. T. Brown,  D. Casanova,  C.-M. Chang,  
 Y. Chen,  S. H. Chien,  K. D. Closser,  M. P. Coons,  D. L. Crittenden,  
 S. Dasgupta,  M. Diedenhofen,  R. A. DiStasio Jr.,  H. Do,  A. D. Dutoi,  
 R. G. Edgar,  P.-T. Fang,  S. Fatehi,  Q. Feng,  L. Fusti-Molnar,  
 A. Ghysels,  A. Golubeva-Zadorozhnaya,  J. Gomes,  A. Gunina,  
 M. W. D. Hanson-Heine,  P. H. P. Harbach,  A. W. Hauser,  E. G. Hohenstein,  
 Z. C. Holden,  K. Hui,  T.-C. Jagau,  H. Ji,  B. Kaduk,  K. Khistyaev,  
 Jaehoon Kim,  Jihan Kim,  R. A. King,  P. Klunzinger,  D. Kosenkov,  
 T. Kowalczyk,  C. M. Krauter,  A. Kunitsa,  K. U. Lao,  A. Laurent,  
 K. V. Lawler,  D. Lefrancois,  S. Lehtola,  S. V. Levchenko,  C. Y. Lin,  
 Y.-S. Lin,  F. Liu,  E. Livshits,  R. C. Lochan,  A. Luenser,  P. Manohar,  
 S. F. Manzer,  S.-P. Mao,  Y. Mao,  N. Mardirossian,  A. V. Marenich,  
 L. A. Martinez-Martinez,  S. A. Maurer,  N. J. Mayhall,  J.-M. Mewes,  
 A. F. Morrison,  K. Nanda,  C. M. Oana,  R. Olivares-Amaya,  D. P. O'Neill,  
 J. A. Parkhill,  T. M. Perrine,  R. Peverati,  P. A. Pieniazek,  F. Plasser,  
 A. Prociuk,  D. R. Rehn,  E. Rosta,  N. J. Russ,  N. Sergueev,  
 S. M. Sharada,  S. Sharma,  D. W. Small,  A. Sodt,  T. Stauch,  T. Stein,  
 D. Stuck,  Y.-C. Su,  A. J. W. Thom,  T. Tsuchimochi,  L. Vogt,  O. Vydrov,  
 T. Wang,  M. A. Watson,  J. Wenzel,  A. White,  C. F. Williams,  
 V. Vanovschi,  S. Yeganeh,  S. R. Yost,  Z.-Q. You,  I. Y. Zhang,  X. Zhang,  
 Y. Zhao,  B. R. Brooks,  G. K. L. Chan,  D. M. Chipman,  C. J. Cramer,  
 W. A. Goddard III,  M. S. Gordon,  W. J. Hehre,  A. Klamt,  
 H. F. Schaefer III,  M. W. Schmidt,  C. D. Sherrill,  D. G. Truhlar,  
 A. Warshel,  X. Xu,  A. Aspuru-Guzik,  R. Baer,  A. T. Bell,  N. A. Besley,  
 J.-D. Chai,  A. Dreuw,  B. D. Dunietz,  T. R. Furlani,  S. R. Gwaltney,  
 C.-P. Hsu,  Y. Jung,  J. Kong,  D. S. Lambrecht,  W. Liang,  C. Ochsenfeld,  
 V. A. Rassolov,  L. V. Slipchenko,  J. E. Subotnik,  T. Van Voorhis,  
 J. M. Herbert,  A. I. Krylov,  P. M. W. Gill,  M. Head-Gordon

 Contributors to earlier versions of Q-Chem not listed above: 
 R. D. Adamson,  J. Baker,  E. F. C. Byrd,  A. K. Chakraborty,  C.-L. Cheng,  
 H. Dachsel,  R. J. Doerksen,  G. Hawkins,  A. Heyden,  S. Hirata,  
 G. Kedziora,  F. J. Keil,  C. Kelley,  P. P. Korambath,  W. Kurlancheek,  
 A. M. Lee,  M. S. Lee,  D. Liotard,  I. Lotan,  P. E. Maslen,  N. Nair,  
 D. Neuhauser,  R. Olson,  B. Peters,  J. Ritchie,  N. E. Schultz,  
 N. Shenvi,  A. C. Simmonett,  K. S. Thanthiriwatte,  Q. Wu,  W. Zhang

 Please cite Q-Chem as follows:
 Y. Shao et al., Mol. Phys. 113, 184-215 (2015)
 DOI: 10.1080/00268976.2014.952696

 Q-Chem 4.4.1 for Intel X86 Linux

 Parts of Q-Chem use Armadillo 5.200.1 (Boston Tea Smuggler).
 http://arma.sourceforge.net/

 Q-Chem begins on Tue Jan 21 14:52:26 2020  

Host: 
0

     Scratch files written to /tmp/5795493.priya/ZrOx.save//
 Jul2716 11668_ 21447  21445 5558   
 Parallel job on  1  processors
Processing $rem in /usr/usc/qchem/4.4/config/preferences.
 MEM_TOTAL  2000 
The previous job contains 0 fragments, simply inherited here

Checking the input file for inconsistencies... 	...done.

--------------------------------------------------------------
User input:
--------------------------------------------------------------

$comment
-----------------------
A GEOMETRY OPTIMIZATION
-----------------------
$end

$molecule
READ
$end

$rem
JOBTYPE   OPT
METHOD   B3LYP
BASIS   GEN
ECP   GEN
SCF_GUESS   READ
MAX_SCF_CYCLES   200
SCF_CONVERGENCE 8
SCF_PRINT 1
PDB_PRINT 2
THRESH 14
VARTHRESH 14
INCDFT FALSE
SYMMETRY False
Sym_ignore True
SCF_ALGORITHM GDM
XC_GRID 000128000302
GEOM_OPT_MAX_CYCLES 200
DFT_D           EMPIRICAL_GRIMME3
DFT_D3_S6       1000
DFT_D3_RS6     1261
DFT_D3_S8      1703
DFT_D3_3BODY    FALSE
SCF_PRINT 1
PDB_PRINT 2
$end

$basis
O
6-31+G**
****
S
6-31+G**
****
Zr
LanL2DZ
****
$end

$ecp
Zr
LanL2DZ
****
$end

--------------------------------------------------------------
 ----------------------------------------------------------------
             Standard Nuclear Orientation (Angstroms)
    I     Atom           X                Y                Z
 ----------------------------------------------------------------
    1      Zr      0.0000000000     0.0000000000     0.2978600000
    2      S      -1.3489900000     0.0000000000    -0.7474100000
    3      O       1.3489900000     0.0000000000    -0.7474100000
 ----------------------------------------------------------------
 Nuclear Repulsion Energy =   114.4094239286 hartrees
 There are       18 alpha and       18 beta electrons

 Q-Chem warning in module /home/scratch/svnadmin/11668_zgan/qchem/forms1/BasisType.C, line 1419:

 Setting pure/cartesian flag to 2111 for general basis


 Requested basis set is non-standard
 There are 19 shells and 62 basis functions

 Total QAlloc Memory Limit   2000 MB
 Mega-Array Size        61 MB
 MEM_STATIC part        62 MB
 A cutoff of  1.0D-14 yielded    188 shell pairs
 There are      2039 function pairs (      2317 Cartesian)
 
 -------------------------------------------------------
 OpenMP Integral Computing Module                       
 Release: version 1.0, May 2013, Q-Chem Inc. Pittsburgh 
 -------------------------------------------------------
 Integral Job Info:
 Integral job number is                      11
 Integral operator is                         1
 short-range coefficients                     0
 long-range coefficients              100000000
 Omega coefficients                           0
 if combine SR and LR in K                    0
 Integral screening is                        0
 Integral computing path is                   2
 max size of driver memory is            800000
 size of driver memory is                593474
 size of scratch memory is             15166112
 max col of scratch BK array               1296
 max len of scratch array in speh3          155
 max len of scratch index in speh4           18
 max int batch size is                      520
 min int batch size is                       52
 fixed nKL is                                52
 max L of basis functions is                  2
 order of int derivative is                   0
 number of shells is                         19
 number of basis is                          66
 number of cartesian basis is                66
 number of contracted shell pairs           188
 number of primitive shell pairs           1125
 maxK2 (contraction) of shell pair           36
 max number of K2 of shell pair               1
 max number of CS2 of shell pair             12
 max number of PS2 of shell pair             72
 mem total for path MDJ                   13912
 -------------------------------------------------------
 Requested basis set is non-standard
 Compound shells will be simplified
 There are 26 shells and 62 basis functions
 A cutoff of  1.0D-14 yielded    348 shell pairs
 There are      2018 function pairs (      2296 Cartesian)
 Smallest overlap matrix eigenvalue = 8.00E-04

 Scale SEOQF with 1.000000e-01/1.000000e-01/1.000000e-01

 Standard Electronic Orientation quadrupole field applied
 Guess MOs from SCF MO coefficient file
 Reading MOs from coefficient file
 Reading MOs from coefficient file
 A restricted hybrid HF-DFT SCF calculation will be
 performed using Geometric Direct Minimization
 Exchange:     0.2000 Hartree-Fock + 0.0800 Slater + 0.7200 B88
 Correlation:  0.1900 VWN1RPA + 0.8100 LYP
 Using Euler-Maclaurin-Lebedev (128,302) quadrature formula
 Dispersion:   Grimme D3
 SCF converges when RMS gradient is below 1.0E-08
 Maximum number of minimization steps = 200
 using 12 threads for integral computing 
 -------------------------------------------------------
 OpenMP BLAS3 based DFT computing Module                
 Release: version 1.0, May 2013, Q-Chem Inc. Pittsburgh 
 -------------------------------------------------------
 
   ------------------- Entering Geometric Direct Minimization ------------------
   GDM:         diagonal hessian shift is      0.000000000000000E+000
   GDM::PreWSS: input subspace size is                  1
   GDM::PreWSS: working subspace size set to            1
   GDM::PrEWSS: # of linearly dependent vectors =            0
   GDM::PrEWSS: Max dev from orthonormality =   2.220446049250313E-016
   GDM::BFGS:   lowest Hinv e-value     1.00000000000000     
   GDM::BFGS:   highest Hinv e-value    1.00000000000000     
   GDM::      : max scaling in EWCs is          2.08268841577499     
   GDM::      : max rotation in step is       -1.008807462727613E-008
   GDM::        grad.step =  -7.465751503101077E-016
   ------- Leaving GDM -- hopefully with a step in the right direction! --------
 
 ---------------------------------------
  Cycle       Energy        RMS Gradient
 ---------------------------------------
    1    -519.7599110287      7.80E-09  Gap = 0.00 eV  Normal BFGS step
 
   ------------------- Entering Geometric Direct Minimization ------------------
   GDM::trust : actual energy change is       -4.547473508864641E-013
   GDM::trust : predicted energy change was   -1.119862725465161E-015
   GDM::trust : updated trust radius is        0.330000000000000     
   GDM:         diagonal hessian shift is      0.000000000000000E+000
   GDM::PreWSS: input subspace size is                  2
   GDM::PreWSS: working subspace size set to            2
   GDM::PrEWSS: # of linearly dependent vectors =            1
   GDM::PrEWSS: Max dev from orthonormality =   1.526556658859590E-015
   GDM::BFGS:   lowest Hinv e-value    0.302263719144799     
   GDM::BFGS:   highest Hinv e-value    1.03550875737210     
   GDM::      : max scaling in EWCs is          2.08268838149028     
   GDM::      : max rotation in step is        7.943867716110711E-009
   GDM::        grad.step =  -1.144271328975473E-015
   ------- Leaving GDM -- hopefully with a step in the right direction! --------
 
    2    -519.7599110287      1.81E-08  Gap = 0.00 eV  Normal BFGS step
 
   ------------------- Entering Geometric Direct Minimization ------------------
   GDM::trust : actual energy change is       -1.136868377216160E-013
   GDM::trust : predicted energy change was   -1.716406993463209E-015
   GDM::trust : updated trust radius is        0.330000000000000     
   GDM:         diagonal hessian shift is      0.000000000000000E+000
   GDM::PreWSS: input subspace size is                  3
   GDM::PreWSS: working subspace size set to            3
   GDM::PrEWSS: # of linearly dependent vectors =            2
   GDM::PrEWSS: Max dev from orthonormality =   6.661338147750939E-016
   GDM::BFGS:   lowest Hinv e-value    0.288253725077802     
   GDM::BFGS:   highest Hinv e-value    1.05044591460206     
   GDM::      : max scaling in EWCs is          2.08268838679044     
   GDM::      : max rotation in step is        3.828023284264190E-009
   GDM::        grad.step =  -7.614206097561363E-017
   ------- Leaving GDM -- hopefully with a step in the right direction! --------
 
    3    -519.7599110287      3.55E-09 Convergence criterion met
 ---------------------------------------
 One-Electron    Energy =  -960.6296204398
 Total Coulomb   Energy =   367.0159985921
 Alpha Exchange  Energy =    -3.8930478896
 Beta  Exchange  Energy =    -3.8930478896
 DFT   Exchange  Energy =   -31.0613385957
 DFT Correlation Energy =    -1.7082787348
 Nuclear Repu.   Energy =   114.4094239286
 Nuclear Attr.   Energy = -1458.8109713111
 Kinetic         Energy =   498.1813508714
 SCF time:  CPU 7.21 s  wall 1.02 s
 SCF   energy in the final basis set = -519.7599110287
 Total energy in the final basis set = -519.7599110287
 
 --------------------------------------------------------------
 
                    Orbital Energies (a.u.)
 --------------------------------------------------------------
 
 Alpha MOs
 -- Occupied --
-88.792 -19.083  -7.902  -5.865  -5.857  -5.854  -2.000  -1.270
 -1.222  -1.188  -0.802  -0.612  -0.353  -0.331  -0.304  -0.294
 -0.246  -0.218
 -- Virtual --
 -0.103  -0.054  -0.048   0.005   0.025   0.029   0.031   0.043
  0.055   0.084   0.088   0.110   0.129   0.143   0.156   0.200
  0.213   0.243   0.249   0.253   0.258   0.283   0.293   0.323
  0.506   0.536   0.562   0.597   0.794   0.807   0.884   0.896
  0.989   1.009   1.214   1.249   1.293   1.694   1.849   1.858
  1.886   1.927   2.091  13.958
 --------------------------------------------------------------
 
          Ground-State Mulliken Net Atomic Charges

     Atom                 Charge (a.u.)
  ----------------------------------------
      1 Zr                    0.845804
      2 S                    -0.248409
      3 O                    -0.597396
  ----------------------------------------
  Sum of atomic charges =     0.000000

 -----------------------------------------------------------------
                    Cartesian Multipole Moments
 -----------------------------------------------------------------
    Charge (ESU x 10^10)
                 0.0000
    Dipole Moment (Debye)
         X      -1.6103      Y       0.0000      Z       5.8227
       Tot       6.0413
    Quadrupole Moments (Debye-Ang)
        XX     -47.7397     XY       0.0000     YY     -33.5717
        XZ       1.2511     YZ       0.0000     ZZ     -38.5129
    Octopole Moments (Debye-Ang^2)
       XXX      27.6821    XXY       0.0000    XYY       9.9906
       YYY       0.0000    XXZ      16.8639    XYZ       0.0000
       YYZ      12.2675    XZZ       9.0356    YZZ       0.0000
       ZZZ      36.3588
    Hexadecapole Moments (Debye-Ang^3)
      XXXX    -297.6023   XXXY       0.0000   XXYY     -53.3665
      XYYY       0.0000   YYYY     -38.7300   XXXZ     -19.7863
      XXYZ       0.0000   XYYZ      -7.1851   YYYZ       0.0000
      XXZZ     -73.2246   XYZZ       0.0000   YYZZ     -26.2727
      XZZZ     -24.3176   YZZZ       0.0000   ZZZZ    -126.9720
 -----------------------------------------------------------------
 Calculating analytic gradient of the SCF energy
 Gradient of SCF Energy
            1           2           3
    1  -0.5048663   0.5796534  -0.0747871
    2  -0.0000000  -0.0000000   0.0000000
    3  -0.5206112   0.4559426   0.0646686
 Max gradient component =       5.797E-01
 RMS gradient           =       3.463E-01
 Gradient time:  CPU 6.60 s  wall 1.14 s
 Geometry Optimization Parameters
   NAtoms,    NIC,     NZ,  NCons,   NDum,   NFix, NCnnct, MaxDiis
        3       9       0       0       0       0       0       0


** GEOMETRY OPTIMIZATION IN DELOCALIZED INTERNAL COORDINATES **
   Searching for a Minimum

   Optimization Cycle:   1

                       Coordinates (Angstroms)
     ATOM                X               Y               Z
      1  Zr        0.0000000000    0.0000000000    0.2978600000
      2  S        -1.3489900000    0.0000000000   -0.7474100000
      3  O         1.3489900000    0.0000000000   -0.7474100000
   Point Group: c1    Number of degrees of freedom:     3


   Energy is   -519.759911029


 Attempting to Generate Delocalized Internal Coordinates

 ** Taking Steepest Descent Step **
 Calculated Step too Large.  Step scaled by  0.403101
 Step Taken.  Stepsize is  0.300000

                             Maximum     Tolerance    Cnvgd?
         Gradient           0.572080      0.000300      NO
         Displacement       0.230606      0.001200      NO
         Energy change     *********      0.000001      NO


 New Cartesian Coordinates Obtained by Inverse Iteration

 Displacement from previous Coordinates is:  0.234833
 ----------------------------------------------------------------
             Standard Nuclear Orientation (Angstroms)
    I     Atom           X                Y                Z
 ----------------------------------------------------------------
    1      Zr      0.0479299580     0.0000000000     0.3368686375
    2      S      -1.4401235976     0.0000000000    -0.7855012206
    3      O       1.3921936397     0.0000000000    -0.7483274168
 ----------------------------------------------------------------
 Nuclear Repulsion Energy =   107.8288668746 hartrees
 There are       18 alpha and       18 beta electrons
 Applying Cartesian multipole field
    Component          Value
    ---------          -----
     (2,0,0)        1.00000E-11
     (0,2,0)        2.00000E-11
     (0,0,2)       -3.00000E-11
 Requested basis set is non-standard
 There are 19 shells and 62 basis functions
 A cutoff of  1.0D-14 yielded    188 shell pairs
 There are      2039 function pairs (      2317 Cartesian)
 Requested basis set is non-standard
 Compound shells will be simplified
 There are 26 shells and 62 basis functions
 A cutoff of  1.0D-14 yielded    348 shell pairs
 There are      2018 function pairs (      2296 Cartesian)
 Smallest overlap matrix eigenvalue = 1.06E-03
 Guess MOs from SCF MO coefficient file
 Reading MOs from coefficient file
 Reading MOs from coefficient file
 A restricted hybrid HF-DFT SCF calculation will be
 performed using Geometric Direct Minimization
 Exchange:     0.2000 Hartree-Fock + 0.0800 Slater + 0.7200 B88
 Correlation:  0.1900 VWN1RPA + 0.8100 LYP
 Using Euler-Maclaurin-Lebedev (128,302) quadrature formula
 Dispersion:   Grimme D3
 SCF converges when RMS gradient is below 1.0E-08
 Maximum number of minimization steps = 200
 Geometry optimization detected.  Setting ReadMinima to 0
 Setting SaveMinima to 0
 using 12 threads for integral computing 
 -------------------------------------------------------
 OpenMP BLAS3 based DFT computing Module                
 Release: version 1.0, May 2013, Q-Chem Inc. Pittsburgh 
 -------------------------------------------------------
 
   ------------------- Entering Geometric Direct Minimization ------------------
   GDM:         diagonal hessian shift is      0.000000000000000E+000
   GDM::PreWSS: input subspace size is                  1
   GDM::PreWSS: working subspace size set to            1
   GDM::PrEWSS: # of linearly dependent vectors =            0
   GDM::PrEWSS: Max dev from orthonormality =   0.000000000000000E+000
   GDM::BFGS:   lowest Hinv e-value     1.00000000000000     
   GDM::BFGS:   highest Hinv e-value    1.00000000000000     
   GDM::      : max scaling in EWCs is          2.06019489521882     
   GDM::      : max rotation in step is        3.595757289521147E-002
   GDM::        grad.step =  -1.390923431317651E-002
   ------- Leaving GDM -- hopefully with a step in the right direction! --------
 
 ---------------------------------------
  Cycle       Energy        RMS Gradient
 ---------------------------------------
    1    -519.9113889626      2.49E-02  Gap = 980.16 eV  Normal BFGS step
 
   ------------------- Entering Geometric Direct Minimization ------------------
   GDM::trust : actual energy change is       -9.852502310877753E-003
   GDM::trust : predicted energy change was   -2.086385146976477E-002
   GDM::trust : updated trust radius is        0.330000000000000     
   GDM:         diagonal hessian shift is      0.000000000000000E+000
   GDM::PreWSS: input subspace size is                  2
   GDM::PreWSS: working subspace size set to            2
   GDM::PrEWSS: # of linearly dependent vectors =            0
   GDM::PrEWSS: Max dev from orthonormality =   9.145462165349727E-015
   GDM::BFGS:   lowest Hinv e-value    0.477009594175955     
   GDM::BFGS:   highest Hinv e-value    1.63390009672273     
   GDM::      : max scaling in EWCs is          2.19749646995298     
   GDM::      : max rotation in step is        3.288284975020184E-002
   GDM::        grad.step =  -5.372021269393156E-003
   ------- Leaving GDM -- hopefully with a step in the right direction! --------
 
    2    -519.9212414649      3.88E-02  Gap = 980.16 eV  Normal BFGS step
 
   ------------------- Entering Geometric Direct Minimization ------------------
   GDM::trust : actual energy change is        2.582737069360519E-003
   GDM::trust : predicted energy change was   -8.058031904089734E-003
   GDM::trust : updated trust radius is        0.108900000000000     
   GDM::search:  On step            1 .  The current bracket is:
       left   : x =  0.0000E+00, e =      -519.9212414649, g = -0.7330E-01
       current: x =  0.7329E-01, e =      -519.9186587278, g =  0.1104E+00
       right  : x =  0.1000E+04, e =      1000.0000000000, g =  0.1000E+04
       next   : x =  0.2475E-01
   GDM::      : max rotation in step is        1.110325171009659E-002
   ------- Leaving GDM -- hopefully with a step in the right direction! --------
 
    3    -519.9186587278      2.60E-02  Gap = 980.16 eV  Line search: overstep
 
   ------------------- Entering Geometric Direct Minimization ------------------
   GDM::trust : actual energy change is       -2.129680531311351E-003
   GDM::trust : predicted energy change was   -8.058031904089734E-003
   GDM::trust : updated trust radius is        0.108900000000000     
   GDM:         diagonal hessian shift is      0.000000000000000E+000
   GDM::PreWSS: input subspace size is                  3
   GDM::PreWSS: working subspace size set to            3
   GDM::PrEWSS: # of linearly dependent vectors =            0
   GDM::PrEWSS: Max dev from orthonormality =   4.549138843401579E-013
   GDM::BFGS:   lowest Hinv e-value    0.258285995897628     
   GDM::BFGS:   highest Hinv e-value    1.33660932512209     
   GDM::      : max scaling in EWCs is          2.05455732012321     
   GDM::      : max rotation in step is       -1.152096903775748E-002
   GDM::        grad.step =  -1.490290185705259E-003
   ------- Leaving GDM -- hopefully with a step in the right direction! --------
 
    4    -519.9233711454      8.50E-03  Gap = 980.16 eV  Normal BFGS step
 
   ------------------- Entering Geometric Direct Minimization ------------------
   GDM::trust : actual energy change is        2.571700666749166E-004
   GDM::trust : predicted energy change was   -2.235435278557889E-003
   GDM::trust : updated trust radius is        0.108900000000000     
   GDM::search:  On step            1 .  The current bracket is:
       left   : x =  0.0000E+00, e =      -519.9233711454, g = -0.3928E-01
       current: x =  0.3794E-01, e =      -519.9231139753, g =  0.4591E-01
       right  : x =  0.1000E+04, e =      1000.0000000000, g =  0.1000E+04
       next   : x =  0.1618E-01
   GDM::      : max rotation in step is       -4.912726072995892E-003
   ------- Leaving GDM -- hopefully with a step in the right direction! --------
 
    5    -519.9231139753      3.57E-03  Gap = 980.16 eV  Line search: overstep
 
   ------------------- Entering Geometric Direct Minimization ------------------
   GDM::trust : actual energy change is       -6.810835695887363E-004
   GDM::trust : predicted energy change was   -2.235435278557889E-003
   GDM::trust : updated trust radius is        0.108900000000000     
   GDM:         diagonal hessian shift is      0.000000000000000E+000
   GDM::PreWSS: input subspace size is                  4
   GDM::PreWSS: working subspace size set to            4
   GDM::PrEWSS: # of linearly dependent vectors =            0
   GDM::PrEWSS: Max dev from orthonormality =   3.570380102679849E-012
   GDM::BFGS:   lowest Hinv e-value    0.250087297945265     
   GDM::BFGS:   highest Hinv e-value    1.23565695595512     
   GDM::      : max scaling in EWCs is          2.08325381763501     
   GDM::      : max rotation in step is        3.142868764247397E-003
   GDM::        grad.step =  -2.379093570031842E-004
   ------- Leaving GDM -- hopefully with a step in the right direction! --------
 
    6    -519.9240522290      5.00E-03  Gap = 980.16 eV  Normal BFGS step
 
   ------------------- Entering Geometric Direct Minimization ------------------
   GDM::trust : actual energy change is        8.908030611110007E-005
   GDM::trust : predicted energy change was   -3.568640355047763E-004
   GDM::trust : updated trust radius is        0.108900000000000     
   GDM::search:  On step            1 .  The current bracket is:
       left   : x =  0.0000E+00, e =      -519.9240522290, g = -0.1735E-01
       current: x =  0.1371E-01, e =      -519.9239631487, g =  0.2386E-01
       right  : x =  0.1000E+04, e =      1000.0000000000, g =  0.1000E+04
       next   : x =  0.4989E-02
   GDM::      : max rotation in step is        1.143335663467380E-003
   ------- Leaving GDM -- hopefully with a step in the right direction! --------
 
    7    -519.9239631487      2.45E-03  Gap = 980.16 eV  Line search: overstep
 
   ------------------- Entering Geometric Direct Minimization ------------------
   GDM::trust : actual energy change is       -9.837987511218671E-005
   GDM::trust : predicted energy change was   -3.568640355047763E-004
   GDM::trust : updated trust radius is        0.108900000000000     
   GDM:         diagonal hessian shift is      0.000000000000000E+000
   GDM::PreWSS: input subspace size is                  5
   GDM::PreWSS: working subspace size set to            5
   GDM::PrEWSS: # of linearly dependent vectors =            0
   GDM::PrEWSS: Max dev from orthonormality =   8.133910212038131E-012
   GDM::BFGS:   lowest Hinv e-value    0.226920070685424     
   GDM::BFGS:   highest Hinv e-value    1.33126612018304     
   GDM::      : max scaling in EWCs is          2.07851514149219     
   GDM::      : max rotation in step is        1.970315134291618E-003
   GDM::        grad.step =  -4.143777998449841E-005
   ------- Leaving GDM -- hopefully with a step in the right direction! --------
 
    8    -519.9241506088      3.05E-03  Gap = 980.16 eV  Normal BFGS step
 
   ------------------- Entering Geometric Direct Minimization ------------------
   GDM::trust : actual energy change is       -1.815786185943580E-005
   GDM::trust : predicted energy change was   -6.215666997674762E-005
   GDM::trust : updated trust radius is        0.330000000000000     
   GDM:         diagonal hessian shift is      0.000000000000000E+000
   GDM::PreWSS: input subspace size is                  6
   GDM::PreWSS: working subspace size set to            6
   GDM::PrEWSS: # of linearly dependent vectors =            0
   GDM::PrEWSS: Max dev from orthonormality =   5.936759070457320E-011
   GDM::BFGS:   lowest Hinv e-value    0.224827915750939     
   GDM::BFGS:   highest Hinv e-value    1.15407416248378     
   GDM::      : max scaling in EWCs is          2.05819179928805     
   GDM::      : max rotation in step is        1.017516218081561E-003
   GDM::        grad.step =  -9.722064412594791E-006
   ------- Leaving GDM -- hopefully with a step in the right direction! --------
 
    9    -519.9241687667      1.76E-03  Gap = 980.16 eV  Normal BFGS step
 
   ------------------- Entering Geometric Direct Minimization ------------------
   GDM::trust : actual energy change is       -9.629431133362232E-006
   GDM::trust : predicted energy change was   -1.458309661889219E-005
   GDM::trust : updated trust radius is        0.330000000000000     
   GDM:         diagonal hessian shift is      0.000000000000000E+000
   GDM::PreWSS: input subspace size is                  7
   GDM::PreWSS: working subspace size set to            7
   GDM::PrEWSS: # of linearly dependent vectors =            0
   GDM::PrEWSS: Max dev from orthonormality =   1.043517570964436E-009
   GDM::BFGS:   lowest Hinv e-value    0.227441687866135     
   GDM::BFGS:   highest Hinv e-value    1.19376924361319     
   GDM::      : max scaling in EWCs is          2.06562073901675     
   GDM::      : max rotation in step is       -2.554646715006005E-004
   GDM::        grad.step =  -1.256602214150299E-007
   ------- Leaving GDM -- hopefully with a step in the right direction! --------
 
   10    -519.9241783961      1.66E-04  Gap = 980.16 eV  Normal BFGS step
 
   ------------------- Entering Geometric Direct Minimization ------------------
   GDM::trust : actual energy change is       -9.111079180001980E-008
   GDM::trust : predicted energy change was   -1.884903321225449E-007
   GDM::trust : updated trust radius is        0.330000000000000     
   GDM:         diagonal hessian shift is      0.000000000000000E+000
   GDM::PreWSS: input subspace size is                  8
   GDM::PreWSS: working subspace size set to            8
   GDM::PrEWSS: # of linearly dependent vectors =            1
   GDM::PrEWSS: Max dev from orthonormality =   3.109450613658638E-010
   GDM::BFGS:   lowest Hinv e-value    0.227124766745272     
   GDM::BFGS:   highest Hinv e-value    1.30908279007712     
   GDM::      : max scaling in EWCs is          2.06586921344046     
   GDM::      : max rotation in step is       -7.083743050232148E-005
   GDM::        grad.step =  -1.838062786725024E-008
   ------- Leaving GDM -- hopefully with a step in the right direction! --------
 
   11    -519.9241784872      3.76E-05  Gap = 980.16 eV  Normal BFGS step
 
   ------------------- Entering Geometric Direct Minimization ------------------
   GDM::trust : actual energy change is       -1.877469912869856E-008
   GDM::trust : predicted energy change was   -2.757094180087536E-008
   GDM::trust : updated trust radius is        0.330000000000000     
   GDM:         diagonal hessian shift is      0.000000000000000E+000
   GDM::PreWSS: input subspace size is                  9
   GDM::PreWSS: working subspace size set to            9
   GDM::PrEWSS: # of linearly dependent vectors =            2
   GDM::PrEWSS: Max dev from orthonormality =   1.974344715494070E-010
   GDM::BFGS:   lowest Hinv e-value    0.227728675528199     
   GDM::BFGS:   highest Hinv e-value    1.38497130060896     
   GDM::      : max scaling in EWCs is          2.06581933906163     
   GDM::      : max rotation in step is        2.316863089992697E-005
   GDM::        grad.step =  -8.465238688370246E-010
   ------- Leaving GDM -- hopefully with a step in the right direction! --------
 
   12    -519.9241785060      9.74E-06  Gap = 980.16 eV  Normal BFGS step
 
   ------------------- Entering Geometric Direct Minimization ------------------
   GDM::trust : actual energy change is       -5.337597031029873E-010
   GDM::trust : predicted energy change was   -1.269785803255537E-009
   GDM::trust : updated trust radius is        0.330000000000000     
   GDM:         diagonal hessian shift is      0.000000000000000E+000
   GDM::PreWSS: input subspace size is                 10
   GDM::PreWSS: working subspace size set to           10
   GDM::PrEWSS: # of linearly dependent vectors =            3
   GDM::PrEWSS: Max dev from orthonormality =   2.986018099448984E-010
   GDM::BFGS:   lowest Hinv e-value    0.226345842272796     
   GDM::BFGS:   highest Hinv e-value    1.49399325095741     
   GDM::      : max scaling in EWCs is          2.06580368396707     
   GDM::      : max rotation in step is        1.647312096249448E-006
   GDM::        grad.step =  -1.201832316945845E-010
   ------- Leaving GDM -- hopefully with a step in the right direction! --------
 
   13    -519.9241785066      3.22E-06  Gap = 980.16 eV  Normal BFGS step
 
   ------------------- Entering Geometric Direct Minimization ------------------
   GDM::trust : actual energy change is       -1.195985532831401E-010
   GDM::trust : predicted energy change was   -1.802748475418768E-010
   GDM::trust : updated trust radius is        0.330000000000000     
   GDM:         diagonal hessian shift is      0.000000000000000E+000
   GDM::PreWSS: input subspace size is                 11
   GDM::PreWSS: working subspace size set to           11
   GDM::PrEWSS: # of linearly dependent vectors =            5
   GDM::PrEWSS: Max dev from orthonormality =   3.751259719519950E-011
   GDM::BFGS:   lowest Hinv e-value    0.226850326607677     
   GDM::BFGS:   highest Hinv e-value    1.49302291204741     
   GDM::      : max scaling in EWCs is          2.06581019337673     
   GDM::      : max rotation in step is        8.004527330348724E-007
   GDM::        grad.step =  -1.682747658393978E-012
   ------- Leaving GDM -- hopefully with a step in the right direction! --------
 
   14    -519.9241785067      3.82E-07  Gap = 980.16 eV  Normal BFGS step
 
   ------------------- Entering Geometric Direct Minimization ------------------
   GDM::trust : actual energy change is       -1.364242052659392E-012
   GDM::trust : predicted energy change was   -2.524121487590966E-012
   GDM::trust : updated trust radius is        0.330000000000000     
   GDM:         diagonal hessian shift is      0.000000000000000E+000
   GDM::PreWSS: input subspace size is                 12
   GDM::PreWSS: working subspace size set to           10
   GDM::PrEWSS: # of linearly dependent vectors =            4
   GDM::PrEWSS: Max dev from orthonormality =   4.599253616843768E-011
   GDM::BFGS:   lowest Hinv e-value    0.254738254612768     
   GDM::BFGS:   highest Hinv e-value    1.84148807096294     
   GDM::      : max scaling in EWCs is          2.06581097997501     
   GDM::      : max rotation in step is        4.782305857336547E-007
   GDM::        grad.step =  -2.188684548207340E-013
   ------- Leaving GDM -- hopefully with a step in the right direction! --------
 
   15    -519.9241785067      2.26E-07  Gap = 980.16 eV  Normal BFGS step
 
   ------------------- Entering Geometric Direct Minimization ------------------
   GDM::trust : actual energy change is        1.136868377216160E-013
   GDM::trust : predicted energy change was   -3.283026822311011E-013
   GDM::trust : updated trust radius is        0.108900000000000     
   GDM::WARNING energy changes are now smaller than effective accuracy.
   GDM::        calculation will continue, but THRESH should be increased
   GDM::        or SCF_CONVERGENCE decreased.
   GDM::        effective_thresh =   1.043517570964436E-009
   GDM:         diagonal hessian shift is      0.000000000000000E+000
   GDM::PreWSS: input subspace size is                 11
   GDM::PreWSS: working subspace size set to            8
   GDM::PrEWSS: # of linearly dependent vectors =            1
   GDM::PrEWSS: Max dev from orthonormality =   1.949914049670376E-010
   GDM::BFGS:   lowest Hinv e-value    0.360740190815508     
   GDM::BFGS:   highest Hinv e-value    1.68388639026805     
   GDM::      : max scaling in EWCs is          2.06581068059471     
   GDM::      : max rotation in step is        1.277709474073828E-007
   GDM::        grad.step =  -7.219604042417338E-015
   ------- Leaving GDM -- hopefully with a step in the right direction! --------
 
   16    -519.9241785067      4.66E-08  Gap = 980.16 eV  Normal BFGS step
 
   ------------------- Entering Geometric Direct Minimization ------------------
[...]
   GDM::trust : predicted energy change was   -4.020625192065477E-008
   GDM::trust : updated trust radius is        0.330000000000000     
   GDM:         diagonal hessian shift is      0.000000000000000E+000
   GDM::PreWSS: input subspace size is                  3
   GDM::PreWSS: working subspace size set to            3
   GDM::PrEWSS: # of linearly dependent vectors =            2
   GDM::PrEWSS: Max dev from orthonormality =   4.440892098500626E-016
   GDM::BFGS:   lowest Hinv e-value    0.455118133122959     
   GDM::BFGS:   highest Hinv e-value    1.28659804354453     
   GDM::      : max scaling in EWCs is          2.30351725017762     
   GDM::      : max rotation in step is        5.181693934461933E-005
   GDM::        grad.step =  -6.320038010670420E-009
   ------- Leaving GDM -- hopefully with a step in the right direction! --------
 
    3    -520.0361802158      3.68E-05  Gap = 0.00 eV  Normal BFGS step
 
   ------------------- Entering Geometric Direct Minimization ------------------
   GDM::trust : actual energy change is        4.170033207628876E-009
   GDM::trust : predicted energy change was   -9.480057016005632E-009
   GDM::trust : updated trust radius is        0.108900000000000     
   GDM::search:  On step            1 .  The current bracket is:
       left   : x =  0.0000E+00, e =      -520.0361802158, g = -0.6553E-04
       current: x =  0.9645E-04, e =      -520.0361802116, g =  0.1088E-03
       right  : x =  0.1000E+04, e =      1000.0000000000, g =  0.1000E+04
       next   : x =  0.2905E-04
   GDM::      : max rotation in step is        1.560928517259826E-005
   ------- Leaving GDM -- hopefully with a step in the right direction! --------
 
    4    -520.0361802116      1.74E-05  Gap = 0.00 eV  Line search: overstep
 
   ------------------- Entering Geometric Direct Minimization ------------------
   GDM::trust : actual energy change is       -2.282149580423720E-009
   GDM::trust : predicted energy change was   -9.480057016005632E-009
   GDM::trust : updated trust radius is        0.108900000000000     
   GDM:         diagonal hessian shift is      0.000000000000000E+000
   GDM::PreWSS: input subspace size is                  4
   GDM::PreWSS: working subspace size set to            4
   GDM::PrEWSS: # of linearly dependent vectors =            3
   GDM::PrEWSS: Max dev from orthonormality =   7.008282842946301E-016
   GDM::BFGS:   lowest Hinv e-value    0.228891121952682     
   GDM::BFGS:   highest Hinv e-value    1.42377223928784     
   GDM::      : max scaling in EWCs is          2.30327287828359     
   GDM::      : max rotation in step is        1.126239844405599E-005
   GDM::        grad.step =  -2.341505146585454E-009
   ------- Leaving GDM -- hopefully with a step in the right direction! --------
 
    5    -520.0361802180      9.57E-06  Gap = 0.00 eV  Normal BFGS step
 
   ------------------- Entering Geometric Direct Minimization ------------------
   GDM::trust : actual energy change is       -7.905782695161179E-010
   GDM::trust : predicted energy change was   -3.512257719878180E-009
   GDM::trust : updated trust radius is        0.330000000000000     
   GDM:         diagonal hessian shift is      0.000000000000000E+000
   GDM::PreWSS: input subspace size is                  5
   GDM::PreWSS: working subspace size set to            5
   GDM::PrEWSS: # of linearly dependent vectors =            4
   GDM::PrEWSS: Max dev from orthonormality =   1.554312234475219E-015
   GDM::BFGS:   lowest Hinv e-value    0.229303092803436     
   GDM::BFGS:   highest Hinv e-value    1.39200504393385     
   GDM::      : max scaling in EWCs is          2.30321220137915     
   GDM::      : max rotation in step is       -1.028464778958596E-005
   GDM::        grad.step =  -8.982843178940126E-010
   ------- Leaving GDM -- hopefully with a step in the right direction! --------
 
    6    -520.0361802188      1.52E-05  Gap = 0.00 eV  Normal BFGS step
 
   ------------------- Entering Geometric Direct Minimization ------------------
   GDM::trust : actual energy change is       -1.180069375550374E-010
   GDM::trust : predicted energy change was   -1.347426476841019E-009
   GDM::trust : updated trust radius is        0.330000000000000     
   GDM:         diagonal hessian shift is      0.000000000000000E+000
   GDM::PreWSS: input subspace size is                  6
   GDM::PreWSS: working subspace size set to            6
   GDM::PrEWSS: # of linearly dependent vectors =            5
   GDM::PrEWSS: Max dev from orthonormality =   2.595146320061303E-015
   GDM::BFGS:   lowest Hinv e-value    0.210637216316054     
   GDM::BFGS:   highest Hinv e-value    1.73207623008429     
   GDM::      : max scaling in EWCs is          2.30320872759698     
   GDM::      : max rotation in step is       -7.373178476072857E-006
   GDM::        grad.step =  -8.984733308900396E-010
   ------- Leaving GDM -- hopefully with a step in the right direction! --------
 
    7    -520.0361802190      1.77E-05  Gap = 0.00 eV  Normal BFGS step
 
   ------------------- Entering Geometric Direct Minimization ------------------
   GDM::trust : actual energy change is       -1.999751475523226E-010
   GDM::trust : predicted energy change was   -1.347709996335059E-009
   GDM::trust : updated trust radius is        0.330000000000000     
   GDM:         diagonal hessian shift is      0.000000000000000E+000
   GDM::PreWSS: input subspace size is                  7
   GDM::PreWSS: working subspace size set to            7
   GDM::PrEWSS: # of linearly dependent vectors =            6
   GDM::PrEWSS: Max dev from orthonormality =   4.996003610813204E-015
   GDM::BFGS:   lowest Hinv e-value    0.223133009606386     
   GDM::BFGS:   highest Hinv e-value    1.23121642145439     
   GDM::      : max scaling in EWCs is          2.30320766552279     
   GDM::      : max rotation in step is        3.649129095598726E-006
   GDM::        grad.step =  -4.256878148181173E-010
   ------- Leaving GDM -- hopefully with a step in the right direction! --------
 
    8    -520.0361802192      6.27E-06  Gap = -nan eV  Normal BFGS step
 
   ------------------- Entering Geometric Direct Minimization ------------------
   GDM::trust : actual energy change is       -3.869899956043810E-010
   GDM::trust : predicted energy change was   -6.385317222271760E-010
   GDM::trust : updated trust radius is        0.330000000000000     
   GDM:         diagonal hessian shift is      0.000000000000000E+000
   GDM::PreWSS: input subspace size is                  8
   GDM::PreWSS: working subspace size set to            8
   GDM::PrEWSS: # of linearly dependent vectors =            7
   GDM::PrEWSS: Max dev from orthonormality =   1.566073659642342E-013
   GDM::BFGS:   lowest Hinv e-value    0.224623741589478     
   GDM::BFGS:   highest Hinv e-value    1.22417147299341     
   GDM::      : max scaling in EWCs is          2.30321157109567     
   GDM::      : max rotation in step is       -7.643301459516906E-007
   GDM::        grad.step =  -1.143028082720534E-011
   ------- Leaving GDM -- hopefully with a step in the right direction! --------
 
    9    -520.0361802195      1.82E-06  Gap = -nan eV  Normal BFGS step
 
   ------------------- Entering Geometric Direct Minimization ------------------
   GDM::trust : actual energy change is       -9.663381206337363E-012
   GDM::trust : predicted energy change was   -1.714542124080801E-011
   GDM::trust : updated trust radius is        0.330000000000000     
   GDM:         diagonal hessian shift is      0.000000000000000E+000
   GDM::PreWSS: input subspace size is                  9
   GDM::PreWSS: working subspace size set to            9
   GDM::PrEWSS: # of linearly dependent vectors =            8
   GDM::PrEWSS: Max dev from orthonormality =   1.618705169903478E-013
   GDM::BFGS:   lowest Hinv e-value    0.214090905611673     
   GDM::BFGS:   highest Hinv e-value    1.25553741440875     
   GDM::      : max scaling in EWCs is          2.30321030132679     
   GDM::      : max rotation in step is        1.333928586385972E-007
   GDM::        grad.step =  -6.836490629080332E-013
   ------- Leaving GDM -- hopefully with a step in the right direction! --------
 
   10    -520.0361802196      3.90E-07  Gap = -nan eV  Normal BFGS step
 
   ------------------- Entering Geometric Direct Minimization ------------------
   GDM::trust : actual energy change is       -3.410605131648481E-013
   GDM::trust : predicted energy change was   -1.025473594362050E-012
   GDM::trust : updated trust radius is        0.330000000000000     
   GDM:         diagonal hessian shift is      0.000000000000000E+000
   GDM::PreWSS: input subspace size is                 10
   GDM::PreWSS: working subspace size set to           10
   GDM::PrEWSS: # of linearly dependent vectors =            9
   GDM::PrEWSS: Max dev from orthonormality =   5.944411629599244E-013
   GDM::BFGS:   lowest Hinv e-value    0.224957124517666     
   GDM::BFGS:   highest Hinv e-value    1.20005957798454     
   GDM::      : max scaling in EWCs is          2.30321061675596     
   GDM::      : max rotation in step is        4.106018375471457E-008
   GDM::        grad.step =  -4.673112702196691E-014
   ------- Leaving GDM -- hopefully with a step in the right direction! --------
 
   11    -520.0361802196      6.06E-08  Gap = -nan eV  Normal BFGS step
 
   ------------------- Entering Geometric Direct Minimization ------------------
   GDM::trust : actual energy change is       -5.684341886080801E-013
   GDM::trust : predicted energy change was   -7.009669053295037E-014
   GDM::trust : updated trust radius is        0.330000000000000     
   GDM:         diagonal hessian shift is      0.000000000000000E+000
   GDM::PreWSS: input subspace size is                 11
   GDM::PreWSS: working subspace size set to           11
   GDM::PrEWSS: # of linearly dependent vectors =           10
   GDM::PrEWSS: Max dev from orthonormality =   9.791854826968205E-013
   GDM::BFGS:   lowest Hinv e-value    0.217551808844040     
   GDM::BFGS:   highest Hinv e-value    1.21131567482435     
   GDM::      : max scaling in EWCs is          2.30321061288821     
   GDM::      : max rotation in step is       -2.407975136048031E-008
   GDM::        grad.step =  -3.662435934259718E-015
   ------- Leaving GDM -- hopefully with a step in the right direction! --------
 
   12    -520.0361802196      3.75E-08  Gap = -nan eV  Normal BFGS step
 
   ------------------- Entering Geometric Direct Minimization ------------------
   GDM::trust : actual energy change is        1.136868377216160E-013
   GDM::trust : predicted energy change was   -5.493653901389577E-015
   GDM::trust : updated trust radius is        0.108900000000000     
   GDM::WARNING energy changes are now smaller than effective accuracy.
   GDM::        calculation will continue, but THRESH should be increased
   GDM::        or SCF_CONVERGENCE decreased.
   GDM::        effective_thresh =   1.800000000000000E-010
   GDM:         diagonal hessian shift is      0.000000000000000E+000
   GDM::PreWSS: input subspace size is                 12
   GDM::PreWSS: working subspace size set to           12
   GDM::PrEWSS: # of linearly dependent vectors =           11
   GDM::PrEWSS: Max dev from orthonormality =   1.904351676351723E-012
   GDM::BFGS:   lowest Hinv e-value    0.216160795407399     
   GDM::BFGS:   highest Hinv e-value    1.21973300483796     
   GDM::      : max scaling in EWCs is          2.30321059970936     
   GDM::      : max rotation in step is       -7.397420329764214E-009
   GDM::        grad.step =  -1.055646558368654E-016
   ------- Leaving GDM -- hopefully with a step in the right direction! --------
 
   13    -520.0361802196      2.76E-09 Convergence criterion met
 ---------------------------------------
 One-Electron    Energy =  -920.4523378436
 Total Coulomb   Energy =   346.4153989242
 Alpha Exchange  Energy =    -3.8526952980
 Beta  Exchange  Energy =    -3.8526952980
 DFT   Exchange  Energy =   -30.7602942052
 DFT Correlation Energy =    -1.6840570488
 Nuclear Repu.   Energy =    94.1505005498
 Nuclear Attr.   Energy = -1416.2869753958
 Kinetic         Energy =   495.8346375522
 SCF time:  CPU 23.98 s  wall 2.24 s
 SCF   energy in the final basis set = -520.0361802196
 Total energy in the final basis set = -520.0361802196
 
 --------------------------------------------------------------
 
                    Orbital Energies (a.u.)
 --------------------------------------------------------------
 
 Alpha MOs
 -- Occupied --
-88.807 -19.132  -7.885  -5.846  -5.845  -5.843  -2.056  -1.279
 -1.260  -1.255  -0.850  -0.623  -0.329  -0.327  -0.326  -0.266
 -0.253  -0.226
 -- Virtual --
 -0.132  -0.099  -0.095  -0.041  -0.028   0.002   0.010   0.026
  0.034   0.071   0.089   0.099   0.100   0.105   0.135   0.180
  0.192   0.212   0.219   0.225   0.247   0.256   0.261   0.298
  0.350   0.558   0.566   0.574   0.699   0.836   0.839   0.855
  0.879   0.940   1.181   1.203   1.247   1.613   1.817   1.828
  1.842   1.858   1.977  10.965
 --------------------------------------------------------------
 
          Ground-State Mulliken Net Atomic Charges

     Atom                 Charge (a.u.)
  ----------------------------------------
      1 Zr                    1.008255
      2 S                    -0.430809
      3 O                    -0.577446
  ----------------------------------------
  Sum of atomic charges =     0.000000

 -----------------------------------------------------------------
                    Cartesian Multipole Moments
 -----------------------------------------------------------------
    Charge (ESU x 10^10)
                 0.0000
    Dipole Moment (Debye)
         X       1.5988      Y       0.0000      Z       7.4332
       Tot       7.6032
    Quadrupole Moments (Debye-Ang)
        XX     -53.9134     XY       0.0000     YY     -35.8534
        XZ       1.4533     YZ       0.0000     ZZ     -39.1655
    Octopole Moments (Debye-Ang^2)
       XXX      39.9555    XXY       0.0000    XYY      14.6413
       YYY       0.0000    XXZ      18.8728    XYZ       0.0000
       YYZ      13.2747    XZZ      14.5212    YZZ       0.0000
       ZZZ      40.2980
    Hexadecapole Moments (Debye-Ang^3)
      XXXX    -453.5982   XXXY       0.0000   XXYY     -78.6678
      XYYY       0.0000   YYYY     -47.3731   XXXZ     -40.9997
      XXYZ       0.0000   XYYZ     -14.0661   YYYZ       0.0000
      XXZZ    -101.5387   XYZZ       0.0000   YYZZ     -31.4565
      XZZZ     -46.5496   YZZZ       0.0000   ZZZZ    -148.3310
 -----------------------------------------------------------------
 Calculating analytic gradient of the SCF energy
 Gradient of SCF Energy
            1           2           3
    1  -0.0000259   0.0000048   0.0000211
    2   0.0000000  -0.0000000  -0.0000000
    3   0.0000123   0.0000078  -0.0000201
 Max gradient component =       2.589E-05
 RMS gradient           =       1.397E-05
 Gradient time:  CPU 6.77 s  wall 0.98 s
 Geometry Optimization Parameters
   NAtoms,    NIC,     NZ,  NCons,   NDum,   NFix, NCnnct, MaxDiis
        3       9       0       0       0       0       0       0

 Cartesian Hessian Update
 Hessian Updated using BFGS Update


** GEOMETRY OPTIMIZATION IN DELOCALIZED INTERNAL COORDINATES **
   Searching for a Minimum

   Optimization Cycle:   8

                       Coordinates (Angstroms)
     ATOM                X               Y               Z
      1  Zr        0.1680211457    0.0000000000    0.3783781374
      2  S        -1.7279483262    0.0000000000   -0.8556406762
      3  O         1.5599271805    0.0000000000   -0.7196974612
   Point Group: c1    Number of degrees of freedom:     3


   Energy is   -520.036180220

 Hessian Updated using BFGS Update

  3 Hessian modes will be used to form the next step
  Hessian Eigenvalues:
     0.203286    0.261355    0.389681

 Minimum Search - Taking Simple RFO Step
 Searching for Lamda that Minimizes Along All modes
 Value Taken    Lamda =   0.00000000
 Step Taken.  Stepsize is  0.000089

                             Maximum     Tolerance    Cnvgd?
         Gradient           0.000024      0.000300     YES
         Displacement       0.000086      0.001200     YES
         Energy change      0.000000      0.000001     YES


                       Distance Matrix (Angstroms)
             Zr(  1)   S (  2)
   S (  2)  2.262190
   O (  3)  1.772899  3.290685
 
 Final energy is   -520.036180219552     


 ******************************
 **  OPTIMIZATION CONVERGED  **
 ******************************

                       Coordinates (Angstroms)
     ATOM                X               Y               Z
      1  Zr        0.1680211457    0.0000000000    0.3783781374
      2  S        -1.7279483262    0.0000000000   -0.8556406762
      3  O         1.5599271805    0.0000000000   -0.7196974612

Z-matrix Print:
$molecule
0 1
Zr
O  1 1.772899
S  1 2.262190 2 108.671402
$end

 
 --------------------------------------------------------------
 
                    Orbital Energies (a.u.)
 --------------------------------------------------------------
 
 Alpha MOs
 -- Occupied --
-88.807 -19.132  -7.885  -5.846  -5.845  -5.843  -2.056  -1.279
 -1.260  -1.255  -0.850  -0.623  -0.329  -0.327  -0.326  -0.266
 -0.253  -0.226
 -- Virtual --
 -0.132  -0.099  -0.095  -0.041  -0.028   0.002   0.010   0.026
  0.034   0.071   0.089   0.099   0.100   0.105   0.135   0.180
  0.192   0.212   0.219   0.225   0.247   0.256   0.261   0.298
  0.350   0.558   0.566   0.574   0.699   0.836   0.839   0.855
  0.879   0.940   1.181   1.203   1.247   1.613   1.817   1.828
  1.842   1.858   1.977  10.965
 --------------------------------------------------------------
 
          Ground-State Mulliken Net Atomic Charges

     Atom                 Charge (a.u.)
  ----------------------------------------
      1 Zr                    1.008255
      2 S                    -0.430809
      3 O                    -0.577446
  ----------------------------------------
  Sum of atomic charges =     0.000000

 -----------------------------------------------------------------
                    Cartesian Multipole Moments
 -----------------------------------------------------------------
    Charge (ESU x 10^10)
                 0.0000
    Dipole Moment (Debye)
         X       1.5988      Y       0.0000      Z       7.4332
       Tot       7.6032
    Quadrupole Moments (Debye-Ang)
        XX     -53.9134     XY       0.0000     YY     -35.8534
        XZ       1.4533     YZ       0.0000     ZZ     -39.1655
    Octopole Moments (Debye-Ang^2)
       XXX      39.9555    XXY       0.0000    XYY      14.6413
       YYY       0.0000    XXZ      18.8728    XYZ       0.0000
       YYZ      13.2747    XZZ      14.5212    YZZ       0.0000
       ZZZ      40.2980
    Hexadecapole Moments (Debye-Ang^3)
      XXXX    -453.5982   XXXY       0.0000   XXYY     -78.6678
      XYYY       0.0000   YYYY     -47.3731   XXXZ     -40.9997
      XXYZ       0.0000   XYYZ     -14.0661   YYYZ       0.0000
      XXZZ    -101.5387   XYZZ       0.0000   YYZZ     -31.4565
      XZZZ     -46.5496   YZZZ       0.0000   ZZZZ    -148.3310
 -----------------------------------------------------------------
Archival summary:
1\1\hpc0241\OPT\ProcedureUnspecified\BasisUnspecified\r111(\liqiuy\TueJan2114:53:042020TueJan2114:53:042020\0\\#,OPT,ProcedureUnspecified,BasisUnspecified,\\28,1\Zr\O,1,1.7729\S,1,2.26219,2,108.671\\\@

 Total job time:  38.46s(wall), 321.34s(cpu) 
 Tue Jan 21 14:53:04 2020

        *************************************************************
        *                                                           *
        *  Thank you very much for using Q-Chem.  Have a nice day.  *
        *                                                           *
        *************************************************************


0 sent ACK to 0 
now end server 0 ... 
cleanup process ... done
