
Running Job 1 of 2 ZrOx.in
qchem ZrOx.in_20894.0 /tmp/5795537.priya/ZrOx.save/ 1
/usr/usc/qchem/4.4/bin/mpi/mpirun_qchem -machinefile /usr/usc/qchem/4.4/bin/mpi/machines -np 1 /usr/usc/qchem/4.4/exe/qcprog.exe ZrOx.in_20894.0 /tmp/5795537.priya/ZrOx.save/

Process 0 of 1 is on hpc0244.hpcc.usc.edu - thread support 0
initial socket setup ...start
initial socket setup ...done 
now start server 0 ... 
Check license passed

                  Welcome to Q-Chem
     A Quantum Leap Into The Future Of Chemistry


 Q-Chem 4.4, Q-Chem, Inc., Pleasanton, CA (2016)

 Y. Shao,  Z. Gan,  E. Epifanovsky,  A. T. B. Gilbert,  M. Wormit,  
 J. Kussmann,  A. W. Lange,  A. Behn,  J. Deng,  X. Feng,  D. Ghosh,  
 M. Goldey,  P. R. Horn,  L. D. Jacobson,  I. Kaliman,  F.Rob,  
 R. Z. Khaliullin,  T. Kus,  A. Landau,  J. Liu,  E. I. Proynov,  Y. M. Rhee,  
 R. M. Richard,  M. A. Rohrdanz,  R. P. Steele,  E. J. Sundstrom,  
 H. L. Woodcock III,  P. M. Zimmerman,  D. Zuev,  B. Albrecht,  E. Alguire,  
 B. Austin,  S. A. Baeppler,  G. J. O. Beran,  Y. A. Bernard,  E. Berquist,  
 K. Brandhorst,  K. B. Bravaya,  S. T. Brown,  D. Casanova,  C.-M. Chang,  
 Y. Chen,  S. H. Chien,  K. D. Closser,  M. P. Coons,  D. L. Crittenden,  
 S. Dasgupta,  M. Diedenhofen,  R. A. DiStasio Jr.,  H. Do,  A. D. Dutoi,  
 R. G. Edgar,  P.-T. Fang,  S. Fatehi,  Q. Feng,  L. Fusti-Molnar,  
 A. Ghysels,  A. Golubeva-Zadorozhnaya,  J. Gomes,  A. Gunina,  
 M. W. D. Hanson-Heine,  P. H. P. Harbach,  A. W. Hauser,  E. G. Hohenstein,  
 Z. C. Holden,  K. Hui,  T.-C. Jagau,  H. Ji,  B. Kaduk,  K. Khistyaev,  
 Jaehoon Kim,  Jihan Kim,  R. A. King,  P. Klunzinger,  D. Kosenkov,  
 T. Kowalczyk,  C. M. Krauter,  A. Kunitsa,  K. U. Lao,  A. Laurent,  
 K. V. Lawler,  D. Lefrancois,  S. Lehtola,  S. V. Levchenko,  C. Y. Lin,  
 Y.-S. Lin,  F. Liu,  E. Livshits,  R. C. Lochan,  A. Luenser,  P. Manohar,  
 S. F. Manzer,  S.-P. Mao,  Y. Mao,  N. Mardirossian,  A. V. Marenich,  
 L. A. Martinez-Martinez,  S. A. Maurer,  N. J. Mayhall,  J.-M. Mewes,  
 A. F. Morrison,  K. Nanda,  C. M. Oana,  R. Olivares-Amaya,  D. P. O'Neill,  
 J. A. Parkhill,  T. M. Perrine,  R. Peverati,  P. A. Pieniazek,  F. Plasser,  
 A. Prociuk,  D. R. Rehn,  E. Rosta,  N. J. Russ,  N. Sergueev,  
 S. M. Sharada,  S. Sharma,  D. W. Small,  A. Sodt,  T. Stauch,  T. Stein,  
 D. Stuck,  Y.-C. Su,  A. J. W. Thom,  T. Tsuchimochi,  L. Vogt,  O. Vydrov,  
 T. Wang,  M. A. Watson,  J. Wenzel,  A. White,  C. F. Williams,  
 V. Vanovschi,  S. Yeganeh,  S. R. Yost,  Z.-Q. You,  I. Y. Zhang,  X. Zhang,  
 Y. Zhao,  B. R. Brooks,  G. K. L. Chan,  D. M. Chipman,  C. J. Cramer,  
 W. A. Goddard III,  M. S. Gordon,  W. J. Hehre,  A. Klamt,  
 H. F. Schaefer III,  M. W. Schmidt,  C. D. Sherrill,  D. G. Truhlar,  
 A. Warshel,  X. Xu,  A. Aspuru-Guzik,  R. Baer,  A. T. Bell,  N. A. Besley,  
 J.-D. Chai,  A. Dreuw,  B. D. Dunietz,  T. R. Furlani,  S. R. Gwaltney,  
 C.-P. Hsu,  Y. Jung,  J. Kong,  D. S. Lambrecht,  W. Liang,  C. Ochsenfeld,  
 V. A. Rassolov,  L. V. Slipchenko,  J. E. Subotnik,  T. Van Voorhis,  
 J. M. Herbert,  A. I. Krylov,  P. M. W. Gill,  M. Head-Gordon

 Contributors to earlier versions of Q-Chem not listed above: 
 R. D. Adamson,  J. Baker,  E. F. C. Byrd,  A. K. Chakraborty,  C.-L. Cheng,  
 H. Dachsel,  R. J. Doerksen,  G. Hawkins,  A. Heyden,  S. Hirata,  
 G. Kedziora,  F. J. Keil,  C. Kelley,  P. P. Korambath,  W. Kurlancheek,  
 A. M. Lee,  M. S. Lee,  D. Liotard,  I. Lotan,  P. E. Maslen,  N. Nair,  
 D. Neuhauser,  R. Olson,  B. Peters,  J. Ritchie,  N. E. Schultz,  
 N. Shenvi,  A. C. Simmonett,  K. S. Thanthiriwatte,  Q. Wu,  W. Zhang

 Please cite Q-Chem as follows:
 Y. Shao et al., Mol. Phys. 113, 184-215 (2015)
 DOI: 10.1080/00268976.2014.952696

 Q-Chem 4.4.1 for Intel X86 Linux

 Parts of Q-Chem use Armadillo 5.200.1 (Boston Tea Smuggler).
 http://arma.sourceforge.net/

 Q-Chem begins on Tue Jan 21 14:52:13 2020  

Host: 
0

     Scratch files written to /tmp/5795537.priya/ZrOx.save//
 Jul2716 11668_ 21447  21445 5558   
 Parallel job on  1  processors
Processing $rem in /usr/usc/qchem/4.4/config/preferences.
 MEM_TOTAL  2000 

Checking the input file for inconsistencies... 	...done.

--------------------------------------------------------------
User input:
--------------------------------------------------------------
$comment
--------------------------------------------------------
A SINGLE POINT DFT CALCULATION WITH BASIS SET PROJECTION
--------------------------------------------------------
$end

$molecule
0 1
Zr 0.00000 0.00000 0.00000
S 0.00000 0.00000 1.78128
S 0.00000 0.00000 -1.78127
$end

$rem
JOBTYPE   SP
METHOD   B3LYP
BASIS   GEN
ECP   GEN
MAX_SCF_CYCLES   200
SCF_CONVERGENCE 8
SCF_PRINT 1
PDB_PRINT 2
THRESH 14
VARTHRESH 14
INCDFT FALSE
SYMMETRY False
Sym_ignore True
SCF_ALGORITHM GDM
XC_GRID 000128000302
DFT_D           EMPIRICAL_GRIMME3
DFT_D3_S6       1000
DFT_D3_RS6     1261
DFT_D3_S8      1703
DFT_D3_3BODY    FALSE
$end

$basis
O
6-31+G**
****
S
6-31+G**
****
Zr
LanL2DZ
****
$end

$ecp
Zr
LanL2DZ
****
$end

--------------------------------------------------------------
 ----------------------------------------------------------------
             Standard Nuclear Orientation (Angstroms)
    I     Atom           X                Y                Z
 ----------------------------------------------------------------
    1      Zr      0.0000000000     0.0000000000     0.0000000000
    2      S       0.0000000000     0.0000000000     1.7812800000
    3      S       0.0000000000     0.0000000000    -1.7812700000
 ----------------------------------------------------------------
 Nuclear Repulsion Energy =   152.1028845280 hartrees
 There are       22 alpha and       22 beta electrons

 Q-Chem warning in module /home/scratch/svnadmin/11668_zgan/qchem/forms1/BasisType.C, line 1419:

 Setting pure/cartesian flag to 2111 for general basis


 Requested basis set is non-standard
 There are 20 shells and 66 basis functions

 Total QAlloc Memory Limit   2000 MB
 Mega-Array Size        61 MB
 MEM_STATIC part        62 MB

                       Distance Matrix (Angstroms)
             Zr(  1)   S (  2)
   S (  2)  1.781280
   S (  3)  1.781270  3.562550
 
 A cutoff of  1.0D-14 yielded    206 shell pairs
 There are      2283 function pairs (      2577 Cartesian)
 
 -------------------------------------------------------
 OpenMP Integral Computing Module                       
 Release: version 1.0, May 2013, Q-Chem Inc. Pittsburgh 
 -------------------------------------------------------
 Integral Job Info:
 Integral job number is                      11
 Integral operator is                         1
 short-range coefficients                     0
 long-range coefficients              100000000
 Omega coefficients                           0
 if combine SR and LR in K                    0
 Integral screening is                        0
 Integral computing path is                   2
 max size of driver memory is            800000
 size of driver memory is                593474
 size of scratch memory is             15166112
 max col of scratch BK array               1296
 max len of scratch array in speh3          155
 max len of scratch index in speh4           18
 max int batch size is                      520
 min int batch size is                       52
 fixed nKL is                                52
 max L of basis functions is                  2
 order of int derivative is                   0
 number of shells is                         20
 number of basis is                          70
 number of cartesian basis is                70
 number of contracted shell pairs           206
 number of primitive shell pairs           1354
 maxK2 (contraction) of shell pair           36
 max number of K2 of shell pair               1
 max number of CS2 of shell pair             12
 max number of PS2 of shell pair             72
 mem total for path MDJ                   14536
 -------------------------------------------------------
 Requested basis set is non-standard
 Compound shells will be simplified
 There are 28 shells and 66 basis functions
 A cutoff of  1.0D-14 yielded    397 shell pairs
 There are      2259 function pairs (      2553 Cartesian)
 Smallest overlap matrix eigenvalue = 1.22E-03

 Scale SEOQF with 1.000000e-01/1.000000e-01/1.000000e-01

 Standard Electronic Orientation quadrupole field applied
 Nucleus-field energy     =    -0.0000000109 hartrees
 Guess MOs from core Hamiltonian diagonalization
 A restricted hybrid HF-DFT SCF calculation will be
 performed using Geometric Direct Minimization
 Exchange:     0.2000 Hartree-Fock + 0.0800 Slater + 0.7200 B88
 Correlation:  0.1900 VWN1RPA + 0.8100 LYP
 Using Euler-Maclaurin-Lebedev (128,302) quadrature formula
 Dispersion:   Grimme D3
 SCF converges when RMS gradient is below 1.0E-08
 Maximum number of minimization steps = 200
 using 12 threads for integral computing 
 -------------------------------------------------------
 OpenMP BLAS3 based DFT computing Module                
 Release: version 1.0, May 2013, Q-Chem Inc. Pittsburgh 
 -------------------------------------------------------
 
   ------------------- Entering Geometric Direct Minimization ------------------
   GDM:         diagonal hessian shift is      0.000000000000000E+000
   GDM::PreWSS: input subspace size is                  1
   GDM::PreWSS: working subspace size set to            1
   GDM::PrEWSS: # of linearly dependent vectors =            0
   GDM::PrEWSS: Max dev from orthonormality =   0.000000000000000E+000
   GDM::BFGS:   lowest Hinv e-value     1.00000000000000     
   GDM::BFGS:   highest Hinv e-value    1.00000000000000     
   GDM::      : max scaling in EWCs is          1.41421356237309     
   GDM::      : max rotation in step is        0.162008762516092     
   GDM::        grad.step =   -1.34817932827135     
   ------- Leaving GDM -- hopefully with a step in the right direction! --------
 
 ---------------------------------------
  Cycle       Energy        RMS Gradient
 ---------------------------------------
    1    -832.2310787640      1.42E+00  Gap = 0.00 eV  Descent step
 
   ------------------- Entering Geometric Direct Minimization ------------------
   GDM::trust : actual energy change is        -2.61202916121306     
   GDM::trust : predicted energy change was   -0.163350000000000     
   GDM::trust : updated trust radius is        0.330000000000000     
   GDM:         diagonal hessian shift is      0.000000000000000E+000
   GDM::PreWSS: input subspace size is                  2
   GDM::PreWSS: working subspace size set to            2
   GDM::PrEWSS: # of linearly dependent vectors =            0
   GDM::PrEWSS: Max dev from orthonormality =   2.262079412673756E-015
   GDM::BFGS:   lowest Hinv e-value    0.447142011637582     
   GDM::BFGS:   highest Hinv e-value    3.07932520626311     
   GDM::      : max scaling in EWCs is          1.41421356237309     
   GDM::      : max rotation in step is       -0.164422785424835     
   GDM::        grad.step =   -1.23093656393394     
   ------- Leaving GDM -- hopefully with a step in the right direction! --------
 
    2    -834.8431079252      1.31E+00  Gap = -216.26 eV  Descent step
 
   ------------------- Entering Geometric Direct Minimization ------------------
   GDM::trust : actual energy change is        -2.35723634117005     
   GDM::trust : predicted energy change was   -0.131463187959891     
   GDM::trust : updated trust radius is        0.330000000000000     
   GDM:         diagonal hessian shift is      0.000000000000000E+000
   GDM::PreWSS: input subspace size is                  3
   GDM::PreWSS: working subspace size set to            3
   GDM::PrEWSS: # of linearly dependent vectors =            0
   GDM::PrEWSS: Max dev from orthonormality =   4.819755705653961E-014
   GDM::BFGS:   lowest Hinv e-value    0.300622483347488     
   GDM::BFGS:   highest Hinv e-value    1.91775538971618     
   GDM::      : max scaling in EWCs is          2.82842712474619     
   GDM::      : max rotation in step is        0.425318505119607     
   GDM::        grad.step =   -1.74432637543024     
   ------- Leaving GDM -- hopefully with a step in the right direction! --------
 
    3    -837.2003442664      2.41E+00  Gap = -216.26 eV  Descent step
 
   ------------------- Entering Geometric Direct Minimization ------------------
   GDM::trust : actual energy change is        -2.89235228451707     
   GDM::trust : predicted energy change was   -0.175391294721696     
   GDM::trust : updated trust radius is        0.330000000000000     
   GDM:         diagonal hessian shift is      0.000000000000000E+000
   GDM::PreWSS: input subspace size is                  4
   GDM::PreWSS: working subspace size set to            4
   GDM::PrEWSS: # of linearly dependent vectors =            0
   GDM::PrEWSS: Max dev from orthonormality =   1.432048923888374E-013
   GDM::BFGS:   lowest Hinv e-value    0.448846107838590     
   GDM::BFGS:   highest Hinv e-value    1.94288951471723     
   GDM::      : max scaling in EWCs is          2.82842712474619     
   GDM::      : max rotation in step is        0.206865010804189     
   GDM::        grad.step =  -0.690273586052962     
   ------- Leaving GDM -- hopefully with a step in the right direction! --------
 
    4    -840.0926965509      7.03E-01  Gap = -216.26 eV  Descent step
 
   ------------------- Entering Geometric Direct Minimization ------------------
   GDM::trust : actual energy change is        -1.24583505032240     
   GDM::trust : predicted energy change was   -0.156494206293064     
   GDM::trust : updated trust radius is        0.330000000000000     
   GDM:         diagonal hessian shift is      0.000000000000000E+000
   GDM::PreWSS: input subspace size is                  5
   GDM::PreWSS: working subspace size set to            5
   GDM::PrEWSS: # of linearly dependent vectors =            0
   GDM::PrEWSS: Max dev from orthonormality =   3.811603810355280E-013
   GDM::BFGS:   lowest Hinv e-value    0.445329532362948     
   GDM::BFGS:   highest Hinv e-value    2.39592049603234     
   GDM::      : max scaling in EWCs is          2.82842712474619     
   GDM::      : max rotation in step is        0.247098189199161     
   GDM::        grad.step =  -0.462272773405785     
   ------- Leaving GDM -- hopefully with a step in the right direction! --------
 
    5    -841.3385316013      5.74E-01  Gap = -216.26 eV  Descent step
 
   ------------------- Entering Geometric Direct Minimization ------------------
   GDM::trust : actual energy change is       -0.736909281863859     
   GDM::trust : predicted energy change was   -0.157890839007340     
   GDM::trust : updated trust radius is        0.330000000000000     
   GDM:         diagonal hessian shift is      0.000000000000000E+000
   GDM::PreWSS: input subspace size is                  6
   GDM::PreWSS: working subspace size set to            6
   GDM::PrEWSS: # of linearly dependent vectors =            0
   GDM::PrEWSS: Max dev from orthonormality =   1.913746938697614E-013
   GDM::BFGS:   lowest Hinv e-value    0.467424122505778     
   GDM::BFGS:   highest Hinv e-value    2.45508469760823     
   GDM::      : max scaling in EWCs is          2.82842712474619     
   GDM::      : max rotation in step is       -0.167438760229823     
   GDM::        grad.step =  -0.238693844771569     
   ------- Leaving GDM -- hopefully with a step in the right direction! --------
 
    6    -842.0754408831      1.90E-01  Gap = -216.26 eV  Descent step
 
   ------------------- Entering Geometric Direct Minimization ------------------
   GDM::trust : actual energy change is       -0.332205163127355     
   GDM::trust : predicted energy change was   -0.177451364970982     
   GDM::trust : updated trust radius is        0.330000000000000     
   GDM:         diagonal hessian shift is      0.000000000000000E+000
   GDM::PreWSS: input subspace size is                  7
   GDM::PreWSS: working subspace size set to            7
   GDM::PrEWSS: # of linearly dependent vectors =            0
   GDM::PrEWSS: Max dev from orthonormality =   1.162202278859326E-012
   GDM::BFGS:   lowest Hinv e-value    0.528330307494402     
   GDM::BFGS:   highest Hinv e-value    2.49395484086978     
   GDM::trust : dogleg step length is          0.330000000000000     
   GDM::      : max scaling in EWCs is          2.82842712474619     
   GDM::      : max rotation in step is       -6.148173060150226E-002
   GDM::        grad.step =  -0.101752183252047     
   ------- Leaving GDM -- hopefully with a step in the right direction! --------
 
    7    -842.4076460462      8.09E-02  Gap = -216.26 eV  Dog-leg BFGS step
 
   ------------------- Entering Geometric Direct Minimization ------------------
   GDM::trust : actual energy change is       -9.473871635259457E-002
   GDM::trust : predicted energy change was   -0.148501404713303     
   GDM::trust : updated trust radius is        0.330000000000000     
   GDM:         diagonal hessian shift is      0.000000000000000E+000
   GDM::PreWSS: input subspace size is                  8
   GDM::PreWSS: working subspace size set to            8
   GDM::PrEWSS: # of linearly dependent vectors =            0
   GDM::PrEWSS: Max dev from orthonormality =   2.316037986394015E-012
   GDM::BFGS:   lowest Hinv e-value    0.533378492589803     
   GDM::BFGS:   highest Hinv e-value    2.27890143740287     
   GDM::      : max scaling in EWCs is          2.82842712474619     
   GDM::      : max rotation in step is        1.692034256653913E-002
   GDM::        grad.step =  -2.546549404831387E-003
   ------- Leaving GDM -- hopefully with a step in the right direction! --------
 
    8    -842.5023847626      1.56E-02  Gap = -216.26 eV  Normal BFGS step
 
   ------------------- Entering Geometric Direct Minimization ------------------
   GDM::trust : actual energy change is       -5.288766999456129E-004
   GDM::trust : predicted energy change was   -3.819824107247080E-003
   GDM::trust : updated trust radius is        0.330000000000000     
   GDM:         diagonal hessian shift is      0.000000000000000E+000
   GDM::PreWSS: input subspace size is                  9
   GDM::PreWSS: working subspace size set to            9
   GDM::PrEWSS: # of linearly dependent vectors =            0
   GDM::PrEWSS: Max dev from orthonormality =   4.896118233066460E-011
   GDM::BFGS:   lowest Hinv e-value    0.525325562497915     
   GDM::BFGS:   highest Hinv e-value    2.10804187944961     
   GDM::      : max scaling in EWCs is          2.82842712474619     
   GDM::      : max rotation in step is       -9.121684718155044E-003
   GDM::        grad.step =  -1.177866551178371E-003
   ------- Leaving GDM -- hopefully with a step in the right direction! --------
 
    9    -842.5029136393      1.30E-02  Gap = -216.26 eV  Normal BFGS step
 
   ------------------- Entering Geometric Direct Minimization ------------------
   GDM::trust : actual energy change is       -1.096392539125191E-003
   GDM::trust : predicted energy change was   -1.766799826767556E-003
   GDM::trust : updated trust radius is        0.330000000000000     
   GDM:         diagonal hessian shift is      0.000000000000000E+000
   GDM::PreWSS: input subspace size is                 10
   GDM::PreWSS: working subspace size set to           10
   GDM::PrEWSS: # of linearly dependent vectors =            1
   GDM::PrEWSS: Max dev from orthonormality =   2.308638141768071E-010
   GDM::BFGS:   lowest Hinv e-value    0.529184038706683     
   GDM::BFGS:   highest Hinv e-value    2.08789321940660     
   GDM::      : max scaling in EWCs is          2.82842712474619     
   GDM::      : max rotation in step is       -2.436351927237526E-003
   GDM::        grad.step =  -3.043844230729573E-005
   ------- Leaving GDM -- hopefully with a step in the right direction! --------
 
   10    -842.5040100318      1.64E-03  Gap = -216.26 eV  Normal BFGS step
 
   ------------------- Entering Geometric Direct Minimization ------------------
   GDM::trust : actual energy change is       -1.556540280489571E-005
   GDM::trust : predicted energy change was   -4.565766346094360E-005
   GDM::trust : updated trust radius is        0.330000000000000     
   GDM:         diagonal hessian shift is      0.000000000000000E+000
   GDM::PreWSS: input subspace size is                 11
   GDM::PreWSS: working subspace size set to           11
   GDM::PrEWSS: # of linearly dependent vectors =            2
   GDM::PrEWSS: Max dev from orthonormality =   1.126830850850524E-010
   GDM::BFGS:   lowest Hinv e-value    0.485968072324912     
   GDM::BFGS:   highest Hinv e-value    1.84016276610379     
   GDM::      : max scaling in EWCs is          2.82842712474619     
   GDM::      : max rotation in step is        1.137618583311692E-003
   GDM::        grad.step =  -8.595139391495393E-006
   ------- Leaving GDM -- hopefully with a step in the right direction! --------
 
   11    -842.5040255972      1.30E-03  Gap = -216.26 eV  Normal BFGS step
 
   ------------------- Entering Geometric Direct Minimization ------------------
   GDM::trust : actual energy change is       -5.992120350128971E-006
   GDM::trust : predicted energy change was   -1.289270908724309E-005
   GDM::trust : updated trust radius is        0.330000000000000     
   GDM:         diagonal hessian shift is      0.000000000000000E+000
   GDM::PreWSS: input subspace size is                 12
   GDM::PreWSS: working subspace size set to           12
   GDM::PrEWSS: # of linearly dependent vectors =            3
   GDM::PrEWSS: Max dev from orthonormality =   4.388682472988847E-011
   GDM::BFGS:   lowest Hinv e-value    0.419084480936091     
   GDM::BFGS:   highest Hinv e-value    1.93926083406756     
   GDM::      : max scaling in EWCs is          2.82842712474619     
   GDM::      : max rotation in step is        4.973831712159260E-004
   GDM::        grad.step =  -1.560822965410385E-006
   ------- Leaving GDM -- hopefully with a step in the right direction! --------
 
   12    -842.5040315894      6.11E-04  Gap = -216.26 eV  Normal BFGS step
 
   ------------------- Entering Geometric Direct Minimization ------------------
   GDM::trust : actual energy change is       -1.030042767524719E-006
   GDM::trust : predicted energy change was   -2.341234448115578E-006
   GDM::trust : updated trust radius is        0.330000000000000     
   GDM:         diagonal hessian shift is      0.000000000000000E+000
   GDM::PreWSS: input subspace size is                 13
   GDM::PreWSS: working subspace size set to           13
   GDM::PrEWSS: # of linearly dependent vectors =            4
   GDM::PrEWSS: Max dev from orthonormality =   1.247105613222388E-010
   GDM::BFGS:   lowest Hinv e-value    0.411643790187451     
   GDM::BFGS:   highest Hinv e-value    1.80624163262204     
   GDM::      : max scaling in EWCs is          2.82842712474619     
   GDM::      : max rotation in step is        1.896149988509017E-004
   GDM::        grad.step =  -2.620265847074628E-007
   ------- Leaving GDM -- hopefully with a step in the right direction! --------
 
   13    -842.5040326194      1.90E-04  Gap = -216.26 eV  Normal BFGS step
 
   ------------------- Entering Geometric Direct Minimization ------------------
   GDM::trust : actual energy change is       -1.827637561291340E-007
   GDM::trust : predicted energy change was   -3.930398770611943E-007
   GDM::trust : updated trust radius is        0.330000000000000     
   GDM:         diagonal hessian shift is      0.000000000000000E+000
   GDM::PreWSS: input subspace size is                 14
   GDM::PreWSS: working subspace size set to           14
   GDM::PrEWSS: # of linearly dependent vectors =            5
   GDM::PrEWSS: Max dev from orthonormality =   9.687235735800215E-011
   GDM::BFGS:   lowest Hinv e-value    0.398288679985453     
   GDM::BFGS:   highest Hinv e-value    1.56164838718852     
   GDM::      : max scaling in EWCs is          2.82842712474619     
   GDM::      : max rotation in step is       -1.510436049084174E-004
   GDM::        grad.step =  -5.604184705767490E-008
   ------- Leaving GDM -- hopefully with a step in the right direction! --------
 
   14    -842.5040328022      7.68E-05  Gap = -216.26 eV  Normal BFGS step
 
   ------------------- Entering Geometric Direct Minimization ------------------
   GDM::trust : actual energy change is       -1.378111846861430E-009
   GDM::trust : predicted energy change was   -8.406277058651236E-008
   GDM::trust : updated trust radius is        0.330000000000000     
   GDM:         diagonal hessian shift is      0.000000000000000E+000
   GDM::PreWSS: input subspace size is                 15
   GDM::PreWSS: working subspace size set to           15
   GDM::PrEWSS: # of linearly dependent vectors =            6
   GDM::PrEWSS: Max dev from orthonormality =   7.807577501184326E-011
   GDM::BFGS:   lowest Hinv e-value    0.283923927538936     
   GDM::BFGS:   highest Hinv e-value    2.10922802175515     
   GDM::      : max scaling in EWCs is          2.82842712474619     
   GDM::      : max rotation in step is        2.004361928111368E-004
   GDM::        grad.step =  -4.976357350671987E-008
   ------- Leaving GDM -- hopefully with a step in the right direction! --------
 
   15    -842.5040328035      1.89E-04  Gap = -216.26 eV  Normal BFGS step
 
   ------------------- Entering Geometric Direct Minimization ------------------
   GDM::trust : actual energy change is       -1.699947915767552E-008
   GDM::trust : predicted energy change was   -7.464536026007980E-008
   GDM::trust : updated trust radius is        0.330000000000000     
   GDM:         diagonal hessian shift is      0.000000000000000E+000
   GDM::PreWSS: input subspace size is                 16
   GDM::PreWSS: working subspace size set to           16
   GDM::PrEWSS: # of linearly dependent vectors =            7
   GDM::PrEWSS: Max dev from orthonormality =   7.666176027321114E-011
   GDM::BFGS:   lowest Hinv e-value    0.244205669698269     
   GDM::BFGS:   highest Hinv e-value    1.55653143717271     
   GDM::      : max scaling in EWCs is          2.82842712474619     
   GDM::      : max rotation in step is       -4.556009103309545E-005
   GDM::        grad.step =  -2.492602217815356E-008
   ------- Leaving GDM -- hopefully with a step in the right direction! --------
 
   16    -842.5040328205      7.22E-05  Gap = -216.26 eV  Normal BFGS step
 
   ------------------- Entering Geometric Direct Minimization ------------------
   GDM::trust : actual energy change is       -1.833302576415008E-008
   GDM::trust : predicted energy change was   -3.738903326723033E-008
   GDM::trust : updated trust radius is        0.330000000000000     
   GDM:         diagonal hessian shift is      0.000000000000000E+000
   GDM::PreWSS: input subspace size is                 17
   GDM::PreWSS: working subspace size set to           17
   GDM::PrEWSS: # of linearly dependent vectors =            8
   GDM::PrEWSS: Max dev from orthonormality =   7.155460945984515E-011
   GDM::BFGS:   lowest Hinv e-value    0.276300778448238     
   GDM::BFGS:   highest Hinv e-value    1.53072117478874     
   GDM::      : max scaling in EWCs is          2.82842712474619     
   GDM::      : max rotation in step is        4.261204913084564E-005
   GDM::        grad.step =  -3.487688806828047E-009
   ------- Leaving GDM -- hopefully with a step in the right direction! --------
 
   17    -842.5040328389      2.29E-05  Gap = -216.26 eV  Normal BFGS step
 
   ------------------- Entering Geometric Direct Minimization ------------------
   GDM::trust : actual energy change is       -3.961531547247432E-009
   GDM::trust : predicted energy change was   -5.231533210242071E-009
   GDM::trust : updated trust radius is        0.330000000000000     
   GDM:         diagonal hessian shift is      0.000000000000000E+000
   GDM::PreWSS: input subspace size is                 18
   GDM::PreWSS: working subspace size set to           18
   GDM::PrEWSS: # of linearly dependent vectors =            9
   GDM::PrEWSS: Max dev from orthonormality =   1.394240278784764E-010
   GDM::BFGS:   lowest Hinv e-value    0.247411298145573     
   GDM::BFGS:   highest Hinv e-value    1.97204671102038     
   GDM::      : max scaling in EWCs is          2.82842712474619     
   GDM::      : max rotation in step is        1.291810933449549E-004
   GDM::        grad.step =  -1.803656853095860E-009
   ------- Leaving GDM -- hopefully with a step in the right direction! --------
 
   18    -842.5040328428      3.76E-05  Gap = -216.26 eV  Normal BFGS step
 
   ------------------- Entering Geometric Direct Minimization ------------------
   GDM::trust : actual energy change is       -4.348180482338648E-009
   GDM::trust : predicted energy change was   -2.705485279643790E-009
   GDM::trust : updated trust radius is        0.330000000000000     
   GDM::search:  On step            1 .  The current bracket is:
       left   : x =  0.0000E+00, e =      -842.5040328428, g = -0.1345E-04
       current: x =  0.1341E-03, e =      -842.5040328472, g = -0.1898E-04
       right  : x =  0.1000E+04, e =      1000.0000000000, g =  0.1000E+04
       next   : x =  0.1341E-02
   GDM::      : max rotation in step is        1.291810933449549E-003
   ------- Leaving GDM -- hopefully with a step in the right direction! --------
 
   19    -842.5040328472      3.55E-06  Gap = -216.26 eV  Line search: understep
 
   ------------------- Entering Geometric Direct Minimization ------------------
   GDM::trust : actual energy change is       -1.102515625461820E-007
   GDM::trust : predicted energy change was   -2.705485279643790E-009
   GDM::trust : updated trust radius is        0.330000000000000     
   GDM::search:  On step            2 .  The current bracket is:
       left   : x =  0.1341E-03, e =      -842.5040328472, g = -0.1898E-04
       current: x =  0.1341E-02, e =      -842.5040329531, g = -0.6878E-04
       right  : x =  0.1000E+04, e =         0.0000000000, g =  0.0000E+00
       next   : x =  0.1220E-01
   GDM::      : max rotation in step is        1.175547949439090E-002
   ------- Leaving GDM -- hopefully with a step in the right direction! --------
 
   20    -842.5040329531      2.02E-05  Gap = -216.26 eV  Line search: understep
 
   ------------------- Entering Geometric Direct Minimization ------------------
   GDM::trust : actual energy change is       -6.482403478003107E-006
   GDM::trust : predicted energy change was   -2.705485279643790E-009
   GDM::trust : updated trust radius is        0.330000000000000     
   GDM::search:  On step            3 .  The current bracket is:
       left   : x =  0.1341E-02, e =      -842.5040329531, g = -0.6878E-04
       current: x =  0.1220E-01, e =      -842.5040393252, g = -0.5183E-03
       right  : x =  0.1000E+04, e =         0.0000000000, g =  0.0000E+00
       next   : x =  0.1100E+00
   GDM::      : max rotation in step is        0.105928496542863     
   ------- Leaving GDM -- hopefully with a step in the right direction! --------
 
   21    -842.5040393252      1.70E-04  Gap = -216.26 eV  Line search: understep
 
   ------------------- Entering Geometric Direct Minimization ------------------
   GDM::trust : actual energy change is       -5.037414139223984E-004
   GDM::trust : predicted energy change was   -2.705485279643790E-009
   GDM::trust : updated trust radius is        0.330000000000000     
   GDM:         diagonal hessian shift is      0.000000000000000E+000
   GDM::PreWSS: input subspace size is                 19
   GDM::PreWSS: working subspace size set to           18
   GDM::PrEWSS: # of linearly dependent vectors =            2
   GDM::PrEWSS: Max dev from orthonormality =   1.163419915961583E-010
   GDM::BFGS:   lowest Hinv e-value    -2.14071237722004     
   GDM::BFGS:   highest Hinv e-value    1.64796079609351     
   GDM::BFGS:   rebuilding Hinv to be positive definite
   GDM::      : max scaling in EWCs is          2.82842712474619     
   GDM::      : max rotation in step is        9.163490646637125E-002
   GDM::        grad.step =  -1.058578215428560E-003
   ------- Leaving GDM -- hopefully with a step in the right direction! --------
 
   22    -842.5045365843      1.55E-02  Gap = -216.26 eV  Normal BFGS step
 
   ------------------- Entering Geometric Direct Minimization ------------------
   GDM::trust : actual energy change is       -2.000857949269630E-003
   GDM::trust : predicted energy change was   -1.587867323142840E-003
   GDM::trust : updated trust radius is        0.330000000000000     
   GDM:         diagonal hessian shift is      0.000000000000000E+000
   GDM::PreWSS: input subspace size is                 19
   GDM::PreWSS: working subspace size set to           18
   GDM::PrEWSS: # of linearly dependent vectors =            1
   GDM::PrEWSS: Max dev from orthonormality =   2.114763225646854E-010
   GDM::BFGS:   lowest Hinv e-value    8.626248797579693E-002
   GDM::BFGS:   highest Hinv e-value    151.888385104173     
   GDM::trust : dogleg step length is          0.330000000000000     
   GDM::      : max scaling in EWCs is          2.82842712474619     
   GDM::      : max rotation in step is        0.735986866002282     
   GDM::        grad.step =  -8.188752688400035E-003
   ------- Leaving GDM -- hopefully with a step in the right direction! --------
 
   23    -842.5065374422      3.28E-02  Gap = 0.00 eV  Dog-leg BFGS step
 
   ------------------- Entering Geometric Direct Minimization ------------------
   GDM::trust : actual energy change is        9.069785741644409E-003
   GDM::trust : predicted energy change was   -1.241923579572311E-002
   GDM::trust : updated trust radius is        0.108900000000000     
   GDM::search:  On step            1 .  The current bracket is:
       left   : x =  0.0000E+00, e =      -842.5065374422, g = -0.1066E-01
       current: x =  0.7680E+00, e =      -842.4974676565, g =  0.7023E-01
       right  : x =  0.1000E+04, e =      1000.0000000000, g =  0.1000E+04
       next   : x =  0.1822E+00
   GDM::      : max rotation in step is        0.174603847597881     
   ------- Leaving GDM -- hopefully with a step in the right direction! --------
 
   24    -842.4974676565      2.87E-02  Gap = 0.00 eV  Line search: overstep
 
   ------------------- Entering Geometric Direct Minimization ------------------
   GDM::trust : actual energy change is       -4.577677108613898E-003
   GDM::trust : predicted energy change was   -1.241923579572311E-002
   GDM::trust : updated trust radius is        0.108900000000000     
   GDM:         diagonal hessian shift is      0.000000000000000E+000
   GDM::PreWSS: input subspace size is                 19
   GDM::PreWSS: working subspace size set to           18
   GDM::PrEWSS: # of linearly dependent vectors =            1
   GDM::PrEWSS: Max dev from orthonormality =   3.023196623597180E-010
   GDM::BFGS:   lowest Hinv e-value   -0.260969327405907     
   GDM::BFGS:   highest Hinv e-value    42.4493632960914     
   GDM::BFGS:   rebuilding Hinv to be positive definite
   GDM::trust : dogleg step length is          0.108900000000000     
   GDM::      : max scaling in EWCs is          2.82842712474619     
   GDM::      : max rotation in step is        0.284117466021472     
   GDM::        grad.step =  -7.653502009430391E-003
   ------- Leaving GDM -- hopefully with a step in the right direction! --------
 
   25    -842.5111151193      6.25E-02  Gap = 0.00 eV  Dog-leg BFGS step
 
   ------------------- Entering Geometric Direct Minimization ------------------
   GDM::trust : actual energy change is       -1.782117064169597E-002
   GDM::trust : predicted energy change was   -1.897290962197167E-002
   GDM::trust : updated trust radius is        0.217800000000000     
   GDM:         diagonal hessian shift is      0.000000000000000E+000
   GDM::PreWSS: input subspace size is                 19
   GDM::PreWSS: working subspace size set to           18
   GDM::PrEWSS: # of linearly dependent vectors =            1
   GDM::PrEWSS: Max dev from orthonormality =   1.895718790279055E-010
   GDM::BFGS:   lowest Hinv e-value    -1.75221066763549     
   GDM::BFGS:   highest Hinv e-value    37.5697098103081     
   GDM::BFGS:   rebuilding Hinv to be positive definite
   GDM::trust : dogleg step length is          0.217800000000000     
   GDM::      : max scaling in EWCs is          2.82842712474619     
   GDM::      : max rotation in step is        0.445623092475116     
   GDM::        grad.step =  -2.061305623044130E-002
   ------- Leaving GDM -- hopefully with a step in the right direction! --------
 
   26    -842.5289362900      8.38E-02  Gap = 0.00 eV  Dog-leg BFGS step
 
   ------------------- Entering Geometric Direct Minimization ------------------
   GDM::trust : actual energy change is       -1.561675683137764E-002
   GDM::trust : predicted energy change was   -2.296350927945588E-002
   GDM::trust : updated trust radius is        0.217800000000000     
   GDM:         diagonal hessian shift is      0.000000000000000E+000
   GDM::PreWSS: input subspace size is                 19
   GDM::PreWSS: working subspace size set to           18
   GDM::PrEWSS: # of linearly dependent vectors =            1
   GDM::PrEWSS: Max dev from orthonormality =   7.834680820772988E-011
   GDM::BFGS:   lowest Hinv e-value   -9.613958215063627E-003
   GDM::BFGS:   highest Hinv e-value    4.87169909714545     
   GDM::BFGS:   rebuilding Hinv to be positive definite
   GDM::trust : dogleg step length is          0.217800000000000     
   GDM::      : max scaling in EWCs is          2.82842712474619     
   GDM::      : max rotation in step is        0.249594230450039     
   GDM::        grad.step =  -3.069508857879955E-002
   ------- Leaving GDM -- hopefully with a step in the right direction! --------
 
   27    -842.5445530468      8.35E-02  Gap = 0.00 eV  Dog-leg BFGS step
 
   ------------------- Entering Geometric Direct Minimization ------------------
   GDM::trust : actual energy change is        6.989836741695399E-004
   GDM::trust : predicted energy change was   -6.967187459069620E-002
   GDM::trust : updated trust radius is        7.187400000000001E-002
   GDM::search:  On step            1 .  The current bracket is:
       left   : x =  0.0000E+00, e =      -842.5445530468, g = -0.9355E-01
       current: x =  0.3281E+00, e =      -842.5438540631, g =  0.8789E-01
       right  : x =  0.1000E+04, e =      1000.0000000000, g =  0.1000E+04
       next   : x =  0.1604E+00
   GDM::      : max rotation in step is        0.122018528700059     
   ------- Leaving GDM -- hopefully with a step in the right direction! --------
 
   28    -842.5438540631      2.41E-02  Gap = 0.00 eV  Line search: overstep
 
   ------------------- Entering Geometric Direct Minimization ------------------
   GDM::trust : actual energy change is       -1.456802937502744E-002
   GDM::trust : predicted energy change was   -6.967187459069620E-002
   GDM::trust : updated trust radius is        7.187400000000001E-002
   GDM:         diagonal hessian shift is      0.000000000000000E+000
   GDM::PreWSS: input subspace size is                 19
   GDM::PreWSS: working subspace size set to           18
   GDM::PrEWSS: # of linearly dependent vectors =            1
   GDM::PrEWSS: Max dev from orthonormality =   2.095469422980223E-010
   GDM::BFGS:   lowest Hinv e-value    0.106081553645038     
   GDM::BFGS:   highest Hinv e-value    3.39609765959761     
   GDM::      : max scaling in EWCs is          2.82842712474619     
   GDM::      : max rotation in step is        7.328808141698565E-002
   GDM::        grad.step =  -7.582308461984146E-003
   ------- Leaving GDM -- hopefully with a step in the right direction! --------
 
   29    -842.5591210762      3.80E-02  Gap = 0.00 eV  Descent step
 
   ------------------- Entering Geometric Direct Minimization ------------------
   GDM::trust : actual energy change is       -8.427140854450954E-003
   GDM::trust : predicted energy change was   -8.377114114375667E-003
   GDM::trust : updated trust radius is        0.330000000000000     
   GDM:         diagonal hessian shift is      0.000000000000000E+000
   GDM::PreWSS: input subspace size is                 19
   GDM::PreWSS: working subspace size set to           18
   GDM::PrEWSS: # of linearly dependent vectors =            1
   GDM::PrEWSS: Max dev from orthonormality =   4.729414082582650E-011
   GDM::BFGS:   lowest Hinv e-value    0.102720199434641     
   GDM::BFGS:   highest Hinv e-value    3.68092364232445     
   GDM::      : max scaling in EWCs is          2.82842712474619     
   GDM::      : max rotation in step is        0.310620313174531     
   GDM::        grad.step =  -5.352664469944533E-003
   ------- Leaving GDM -- hopefully with a step in the right direction! --------
 
   30    -842.5675482170      3.14E-02  Gap = 0.00 eV  Normal BFGS step
 
   ------------------- Entering Geometric Direct Minimization ------------------
   GDM::trust : actual energy change is        3.317151112810279E-003
   GDM::trust : predicted energy change was   -8.028996704916799E-003
   GDM::trust : updated trust radius is        0.108900000000000     
   GDM::search:  On step            1 .  The current bracket is:
       left   : x =  0.0000E+00, e =      -842.5675482170, g = -0.1698E-01
       current: x =  0.3153E+00, e =      -842.5642310659, g =  0.2812E-01
       right  : x =  0.1000E+04, e =      1000.0000000000, g =  0.1000E+04
       next   : x =  0.9733E-01
   GDM::      : max rotation in step is        9.588706346185367E-002
   ------- Leaving GDM -- hopefully with a step in the right direction! --------
 
   31    -842.5642310659      1.92E-02  Gap = 0.00 eV  Line search: overstep
 
   ------------------- Entering Geometric Direct Minimization ------------------
   GDM::trust : actual energy change is       -2.014524345554491E-003
   GDM::trust : predicted energy change was   -8.028996704916799E-003
   GDM::trust : updated trust radius is        0.108900000000000     
   GDM:         diagonal hessian shift is      0.000000000000000E+000
   GDM::PreWSS: input subspace size is                 19
   GDM::PreWSS: working subspace size set to           18
   GDM::PrEWSS: # of linearly dependent vectors =            1
   GDM::PrEWSS: Max dev from orthonormality =   6.346264486145614E-011
   GDM::BFGS:   lowest Hinv e-value    9.588928448663769E-002
   GDM::BFGS:   highest Hinv e-value    3.44204403825471     
   GDM::      : max scaling in EWCs is          2.82842712474619     
   GDM::      : max rotation in step is        0.164383195814915     
   GDM::        grad.step =  -4.132308013276478E-003
   ------- Leaving GDM -- hopefully with a step in the right direction! --------
 
   32    -842.5695627414      4.07E-02  Gap = 0.00 eV  Normal BFGS step
 
   ------------------- Entering Geometric Direct Minimization ------------------
   GDM::trust : actual energy change is       -1.022738610345186E-003
   GDM::trust : predicted energy change was   -6.198462019914718E-003
   GDM::trust : updated trust radius is        0.330000000000000     
   GDM:         diagonal hessian shift is      0.000000000000000E+000
   GDM::PreWSS: input subspace size is                 19
   GDM::PreWSS: working subspace size set to           18
   GDM::PrEWSS: # of linearly dependent vectors =            0
   GDM::PrEWSS: Max dev from orthonormality =   6.585690291716073E-010
   GDM::BFGS:   lowest Hinv e-value    0.130597055175851     
   GDM::BFGS:   highest Hinv e-value    3.35015250456533     
   GDM::      : max scaling in EWCs is          2.82842712474619     
   GDM::      : max rotation in step is       -2.859601896349422E-002
   GDM::        grad.step =  -1.654315225072071E-003
   ------- Leaving GDM -- hopefully with a step in the right direction! --------
 
   33    -842.5705854800      3.70E-02  Gap = 0.00 eV  Normal BFGS step
 
   ------------------- Entering Geometric Direct Minimization ------------------
   GDM::trust : actual energy change is       -1.643730042815150E-003
   GDM::trust : predicted energy change was   -2.481472837608108E-003
   GDM::trust : updated trust radius is        0.330000000000000     
   GDM:         diagonal hessian shift is      0.000000000000000E+000
   GDM::PreWSS: input subspace size is                 19
   GDM::PreWSS: working subspace size set to           18
   GDM::PrEWSS: # of linearly dependent vectors =            0
   GDM::PrEWSS: Max dev from orthonormality =   5.820562608283009E-010
   GDM::BFGS:   lowest Hinv e-value    0.114578483798150     
   GDM::BFGS:   highest Hinv e-value    3.63204618962917     
   GDM::      : max scaling in EWCs is          2.82842712474619     
   GDM::      : max rotation in step is       -2.226288679070140E-002
   GDM::        grad.step =  -2.022374670098933E-004
   ------- Leaving GDM -- hopefully with a step in the right direction! --------
 
   34    -842.5722292100      6.69E-03  Gap = 0.00 eV  Normal BFGS step
 
   ------------------- Entering Geometric Direct Minimization ------------------
   GDM::trust : actual energy change is        1.789843759070209E-005
   GDM::trust : predicted energy change was   -3.033562005148399E-004
   GDM::trust : updated trust radius is        0.108900000000000     
   GDM::search:  On step            1 .  The current bracket is:
       left   : x =  0.0000E+00, e =      -842.5722292100, g = -0.7458E-02
       current: x =  0.2712E-01, e =      -842.5722113116, g =  0.8015E-02
       right  : x =  0.1000E+04, e =      1000.0000000000, g =  0.1000E+04
       next   : x =  0.1246E-01
   GDM::      : max rotation in step is       -1.022638683373436E-002
   ------- Leaving GDM -- hopefully with a step in the right direction! --------
 
   35    -842.5722113116      8.73E-04  Gap = 0.00 eV  Line search: overstep
 
   ------------------- Entering Geometric Direct Minimization ------------------
   GDM::trust : actual energy change is       -9.603393573343055E-005
   GDM::trust : predicted energy change was   -3.033562005148399E-004
   GDM::trust : updated trust radius is        0.108900000000000     
   GDM:         diagonal hessian shift is      0.000000000000000E+000
   GDM::PreWSS: input subspace size is                 19
   GDM::PreWSS: working subspace size set to           18
   GDM::PrEWSS: # of linearly dependent vectors =            1
   GDM::PrEWSS: Max dev from orthonormality =   7.174133856424625E-011
   GDM::BFGS:   lowest Hinv e-value    0.135335735248333     
   GDM::BFGS:   highest Hinv e-value    2.37144684978256     
   GDM::      : max scaling in EWCs is          2.82842712474619     
   GDM::      : max rotation in step is        1.539552719048741E-002
   GDM::        grad.step =  -6.665163424693219E-005
   ------- Leaving GDM -- hopefully with a step in the right direction! --------
 
   36    -842.5723252439      6.05E-03  Gap = 0.00 eV  Normal BFGS step
 
   ------------------- Entering Geometric Direct Minimization ------------------
   GDM::trust : actual energy change is       -1.045065890821206E-004
   GDM::trust : predicted energy change was   -9.997745137039830E-005
   GDM::trust : updated trust radius is        0.330000000000000     
   GDM:         diagonal hessian shift is      0.000000000000000E+000
   GDM::PreWSS: input subspace size is                 19
   GDM::PreWSS: working subspace size set to           18
   GDM::PrEWSS: # of linearly dependent vectors =            2
   GDM::PrEWSS: Max dev from orthonormality =   3.244550461634077E-011
   GDM::BFGS:   lowest Hinv e-value    0.183390247495237     
   GDM::BFGS:   highest Hinv e-value    3.59135670321516     
   GDM::      : max scaling in EWCs is          2.82842712474619     
   GDM::      : max rotation in step is        3.501643989018034E-002
   GDM::        grad.step =  -1.270340726920231E-004
   ------- Leaving GDM -- hopefully with a step in the right direction! --------
 
   37    -842.5724297505      5.69E-03  Gap = 0.00 eV  Normal BFGS step
 
   ------------------- Entering Geometric Direct Minimization ------------------
   GDM::trust : actual energy change is       -1.460092821616854E-004
   GDM::trust : predicted energy change was   -1.905511090380346E-004
   GDM::trust : updated trust radius is        0.330000000000000     
   GDM:         diagonal hessian shift is      0.000000000000000E+000
   GDM::PreWSS: input subspace size is                 19
   GDM::PreWSS: working subspace size set to           18
   GDM::PrEWSS: # of linearly dependent vectors =            1
   GDM::PrEWSS: Max dev from orthonormality =   1.672325333768043E-010
   GDM::BFGS:   lowest Hinv e-value    0.194401989792834     
   GDM::BFGS:   highest Hinv e-value    3.52463340537900     
   GDM::      : max scaling in EWCs is          2.82842712474619     
   GDM::      : max rotation in step is        5.868006740221579E-003
   GDM::        grad.step =  -2.502382458097693E-005
   ------- Leaving GDM -- hopefully with a step in the right direction! --------
 
   38    -842.5725757598      2.04E-03  Gap = 0.00 eV  Normal BFGS step
 
   ------------------- Entering Geometric Direct Minimization ------------------
   GDM::trust : actual energy change is       -3.049859196835314E-005
   GDM::trust : predicted energy change was   -3.753573687146539E-005
   GDM::trust : updated trust radius is        0.330000000000000     
   GDM:         diagonal hessian shift is      0.000000000000000E+000
   GDM::PreWSS: input subspace size is                 19
   GDM::PreWSS: working subspace size set to           18
   GDM::PrEWSS: # of linearly dependent vectors =            1
   GDM::PrEWSS: Max dev from orthonormality =   1.842528317419490E-010
   GDM::BFGS:   lowest Hinv e-value    0.207088526148835     
   GDM::BFGS:   highest Hinv e-value    3.33160388520742     
   GDM::      : max scaling in EWCs is          2.82842712474619     
   GDM::      : max rotation in step is       -2.259546218175528E-003
   GDM::        grad.step =  -7.429765086571499E-006
   ------- Leaving GDM -- hopefully with a step in the right direction! --------
 
   39    -842.5726062584      1.17E-03  Gap = 0.00 eV  Normal BFGS step
 
   ------------------- Entering Geometric Direct Minimization ------------------
   GDM::trust : actual energy change is       -7.700178116465395E-006
   GDM::trust : predicted energy change was   -1.114464762985725E-005
   GDM::trust : updated trust radius is        0.330000000000000     
   GDM:         diagonal hessian shift is      0.000000000000000E+000
   GDM::PreWSS: input subspace size is                 19
   GDM::PreWSS: working subspace size set to           18
   GDM::PrEWSS: # of linearly dependent vectors =            1
   GDM::PrEWSS: Max dev from orthonormality =   1.797966220351555E-010
   GDM::BFGS:   lowest Hinv e-value    0.205892207447816     
   GDM::BFGS:   highest Hinv e-value    3.57757112389386     
   GDM::      : max scaling in EWCs is          2.82842712474619     
   GDM::      : max rotation in step is       -1.552262013385912E-003
   GDM::        grad.step =  -4.630628965974260E-007
   ------- Leaving GDM -- hopefully with a step in the right direction! --------
 
   40    -842.5726139586      1.98E-04  Gap = 0.00 eV  Normal BFGS step
 
   ------------------- Entering Geometric Direct Minimization ------------------
   GDM::trust : actual energy change is       -4.444026444616611E-007
   GDM::trust : predicted energy change was   -6.945943448961391E-007
   GDM::trust : updated trust radius is        0.330000000000000     
   GDM:         diagonal hessian shift is      0.000000000000000E+000
   GDM::PreWSS: input subspace size is                 19
   GDM::PreWSS: working subspace size set to           18
   GDM::PrEWSS: # of linearly dependent vectors =            1
   GDM::PrEWSS: Max dev from orthonormality =   8.216882521616675E-010
   GDM::BFGS:   lowest Hinv e-value    0.205354111273033     
   GDM::BFGS:   highest Hinv e-value    3.89367251820583     
   GDM::      : max scaling in EWCs is          2.82842712474619     
   GDM::      : max rotation in step is       -2.912534752918455E-004
   GDM::        grad.step =  -1.675776846025940E-008
   ------- Leaving GDM -- hopefully with a step in the right direction! --------
 
   41    -842.5726144030      5.15E-05  Gap = 0.00 eV  Normal BFGS step
 
   ------------------- Entering Geometric Direct Minimization ------------------
   GDM::trust : actual energy change is       -1.462331056245603E-008
   GDM::trust : predicted energy change was   -2.513665269038910E-008
   GDM::trust : updated trust radius is        0.330000000000000     
   GDM:         diagonal hessian shift is      0.000000000000000E+000
   GDM::PreWSS: input subspace size is                 19
   GDM::PreWSS: working subspace size set to           18
   GDM::PrEWSS: # of linearly dependent vectors =            1
   GDM::PrEWSS: Max dev from orthonormality =   2.410805929886628E-010
   GDM::BFGS:   lowest Hinv e-value    0.205481774180512     
   GDM::BFGS:   highest Hinv e-value    3.66940061816562     
   GDM::      : max scaling in EWCs is          2.82842712474619     
   GDM::      : max rotation in step is        3.917796788402224E-005
   GDM::        grad.step =  -6.786166611309971E-010
   ------- Leaving GDM -- hopefully with a step in the right direction! --------
 
   42    -842.5726144176      7.17E-06  Gap = 0.00 eV  Normal BFGS step
 
   ------------------- Entering Geometric Direct Minimization ------------------
   GDM::trust : actual energy change is       -5.718447937397286E-010
   GDM::trust : predicted energy change was   -1.017924991696496E-009
   GDM::trust : updated trust radius is        0.330000000000000     
   GDM:         diagonal hessian shift is      0.000000000000000E+000
   GDM::PreWSS: input subspace size is                 19
   GDM::PreWSS: working subspace size set to           18
   GDM::PrEWSS: # of linearly dependent vectors =            1
   GDM::PrEWSS: Max dev from orthonormality =   1.198689064674241E-010
   GDM::BFGS:   lowest Hinv e-value    0.205814383566193     
   GDM::BFGS:   highest Hinv e-value    3.69324869090797     
   GDM::      : max scaling in EWCs is          2.82842712474619     
   GDM::      : max rotation in step is        1.448427736521394E-006
   GDM::        grad.step =  -3.805425460526766E-011
   ------- Leaving GDM -- hopefully with a step in the right direction! --------
 
   43    -842.5726144182      1.69E-06  Gap = 0.00 eV  Normal BFGS step
 
   ------------------- Entering Geometric Direct Minimization ------------------
   GDM::trust : actual energy change is       -3.285549610154703E-011
   GDM::trust : predicted energy change was   -5.708138190790149E-011
   GDM::trust : updated trust radius is        0.330000000000000     
   GDM:         diagonal hessian shift is      0.000000000000000E+000
   GDM::PreWSS: input subspace size is                 19
   GDM::PreWSS: working subspace size set to           13
   GDM::PrEWSS: # of linearly dependent vectors =            0
   GDM::PrEWSS: Max dev from orthonormality =   2.790129585705792E-011
   GDM::BFGS:   lowest Hinv e-value    0.204087125767105     
   GDM::BFGS:   highest Hinv e-value    3.65675894011885     
   GDM::      : max scaling in EWCs is          2.82842712474619     
   GDM::      : max rotation in step is       -1.222959001026453E-006
   GDM::        grad.step =  -8.982401177169479E-013
   ------- Leaving GDM -- hopefully with a step in the right direction! --------
 
   44    -842.5726144182      3.42E-07  Gap = 0.00 eV  Normal BFGS step
 
   ------------------- Entering Geometric Direct Minimization ------------------
   GDM::trust : actual energy change is       -7.958078640513122E-013
   GDM::trust : predicted energy change was   -1.347360176575422E-012
   GDM::trust : updated trust radius is        0.330000000000000     
   GDM:         diagonal hessian shift is      0.000000000000000E+000
   GDM::PreWSS: input subspace size is                 14
   GDM::PreWSS: working subspace size set to           10
   GDM::PrEWSS: # of linearly dependent vectors =            0
   GDM::PrEWSS: Max dev from orthonormality =   3.879389864902549E-012
   GDM::BFGS:   lowest Hinv e-value    0.482583432106647     
   GDM::BFGS:   highest Hinv e-value    3.93505772720491     
   GDM::      : max scaling in EWCs is          2.82842712474619     
   GDM::      : max rotation in step is        8.955165579358852E-008
   GDM::        grad.step =  -4.401021592002250E-014
   ------- Leaving GDM -- hopefully with a step in the right direction! --------
 
   45    -842.5726144182      8.23E-08  Gap = 0.00 eV  Normal BFGS step
 
   ------------------- Entering Geometric Direct Minimization ------------------
   GDM::trust : actual energy change is        4.547473508864641E-013
   GDM::trust : predicted energy change was   -6.601532388003376E-014
   GDM::trust : updated trust radius is        0.108900000000000     
   GDM::WARNING energy changes are now smaller than effective accuracy.
   GDM::        calculation will continue, but THRESH should be increased
   GDM::        or SCF_CONVERGENCE decreased.
   GDM::        effective_thresh =   8.216882521616675E-010
   GDM:         diagonal hessian shift is      0.000000000000000E+000
   GDM::PreWSS: input subspace size is                 11
   GDM::PreWSS: working subspace size set to           11
   GDM::PrEWSS: # of linearly dependent vectors =            1
   GDM::PrEWSS: Max dev from orthonormality =   6.253761397623236E-012
   GDM::BFGS:   lowest Hinv e-value    0.420855168691181     
   GDM::BFGS:   highest Hinv e-value    3.90856418198584     
   GDM::      : max scaling in EWCs is          2.82842712474619     
   GDM::      : max rotation in step is       -4.775813114011539E-008
   GDM::        grad.step =  -2.028423224518923E-014
   ------- Leaving GDM -- hopefully with a step in the right direction! --------
 
   46    -842.5726144182      9.66E-08  Gap = 0.00 eV  Normal BFGS step
 
   ------------------- Entering Geometric Direct Minimization ------------------
   GDM::trust : actual energy change is        3.410605131648481E-013
   GDM::trust : predicted energy change was   -3.042634836778385E-014
   GDM::trust : updated trust radius is        0.108900000000000     
   GDM::WARNING energy changes are now smaller than effective accuracy.
   GDM::        calculation will continue, but THRESH should be increased
   GDM::        or SCF_CONVERGENCE decreased.
   GDM::        effective_thresh =   8.216882521616675E-010
   GDM:         diagonal hessian shift is      0.000000000000000E+000
   GDM::PreWSS: input subspace size is                 12
   GDM::PreWSS: working subspace size set to            9
   GDM::PrEWSS: # of linearly dependent vectors =            0
   GDM::PrEWSS: Max dev from orthonormality =   8.013277541518704E-012
   GDM::BFGS:   lowest Hinv e-value    0.374916789399365     
   GDM::BFGS:   highest Hinv e-value    3.47183679684674     
   GDM::      : max scaling in EWCs is          2.82842712474619     
   GDM::      : max rotation in step is        6.999463909868551E-008
   GDM::        grad.step =  -2.339153965423310E-015
   ------- Leaving GDM -- hopefully with a step in the right direction! --------
 
   47    -842.5726144182      1.66E-08  Gap = 0.00 eV  Normal BFGS step
 
   ------------------- Entering Geometric Direct Minimization ------------------
   GDM::trust : actual energy change is        0.000000000000000E+000
   GDM::trust : predicted energy change was   -3.508730948134965E-015
   GDM::trust : updated trust radius is        0.330000000000000     
   GDM:         diagonal hessian shift is      0.000000000000000E+000
   GDM::PreWSS: input subspace size is                 10
   GDM::PreWSS: working subspace size set to            9
   GDM::PrEWSS: # of linearly dependent vectors =            0
   GDM::PrEWSS: Max dev from orthonormality =   2.580451824440999E-011
   GDM::BFGS:   lowest Hinv e-value    0.390614853544254     
   GDM::BFGS:   highest Hinv e-value    3.40374208594751     
   GDM::      : max scaling in EWCs is          2.82842712474619     
   GDM::      : max rotation in step is       -6.331620201383477E-009
   GDM::        grad.step =  -4.695704943008341E-016
   ------- Leaving GDM -- hopefully with a step in the right direction! --------
 
   48    -842.5726144182      6.50E-09 Convergence criterion met
 ---------------------------------------
 One-Electron    Energy = -1478.4538505301
 Total Coulomb   Energy =   541.2988960784
 Alpha Exchange  Energy =    -5.5586813235
 Beta  Exchange  Energy =    -5.5586813235
 DFT   Exchange  Energy =   -44.2414081959
 DFT Correlation Energy =    -2.1617736407
 Nuclear Repu.   Energy =   152.1028845171
 Nuclear Attr.   Energy = -2298.7185844828
 Kinetic         Energy =   820.2647339527
 SCF time:  CPU 110.01 s  wall 18.58 s
 SCF   energy in the final basis set = -842.5726144182
 Total energy in the final basis set = -842.5726144182
 
 --------------------------------------------------------------
 
                    Orbital Energies (a.u.)
 --------------------------------------------------------------
 
 Alpha MOs
 -- Occupied --
-88.911 -88.911  -7.998  -7.998  -5.966  -5.966  -5.952  -5.952
 -5.952  -5.952  -2.086  -1.395  -1.259  -1.259  -0.755  -0.640
 -0.411  -0.411  -0.391  -0.309  -0.309  -0.180
 -- Virtual --
 -0.135  -0.105  -0.105  -0.031  -0.031   0.001   0.001   0.011
  0.011   0.076   0.088   0.088   0.095   0.099   0.099   0.110
  0.110   0.120   0.176   0.186   0.186   0.239   0.284   0.284
  0.323   0.518   0.518   0.524   0.524   0.580   0.586   0.715
  0.715   0.723   0.729   0.729   0.751   0.751   0.818   0.942
  0.942   1.003   1.031  16.385
 --------------------------------------------------------------
 
          Ground-State Mulliken Net Atomic Charges

     Atom                 Charge (a.u.)
  ----------------------------------------
      1 Zr                   -0.096600
      2 S                     0.048300
      3 S                     0.048300
  ----------------------------------------
  Sum of atomic charges =     0.000000

 -----------------------------------------------------------------
                    Cartesian Multipole Moments
 -----------------------------------------------------------------
    Charge (ESU x 10^10)
                 0.0000
    Dipole Moment (Debye)
         X       0.0000      Y       0.0000      Z      -0.0001
       Tot       0.0001
    Quadrupole Moments (Debye-Ang)
        XX     -51.0201     XY       0.0000     YY     -51.0201
        XZ       0.0000     YZ       0.0000     ZZ     -45.0567
    Octopole Moments (Debye-Ang^2)
       XXX       0.0000    XXY       0.0000    XYY       0.0000
       YYY       0.0000    XXZ      -0.0002    XYZ       0.0000
       YYZ      -0.0002    XZZ       0.0000    YZZ       0.0000
       ZZZ      -0.0010
    Hexadecapole Moments (Debye-Ang^3)
      XXXX    -102.1315   XXXY       0.0000   XXYY     -34.0438
      XYYY       0.0000   YYYY    -102.1315   XXXZ       0.0000
      XXYZ       0.0000   XYYZ       0.0000   YYYZ       0.0000
      XXZZ    -109.9522   XYZZ       0.0000   YYZZ    -109.9522
      XZZZ       0.0000   YZZZ       0.0000   ZZZZ    -501.8121
 -----------------------------------------------------------------
Archival summary:
1\1\hpc0244\SP\ProcedureUnspecified\BasisUnspecified\r12(\liqiuy\TueJan2114:52:322020TueJan2114:52:322020\0\\#,ProcedureUnspecified,BasisUnspecified,\\28,1\Zr\S,1,1.78127\S,1,1.78128,2,180\\\@

 Total job time:  19.47s(wall), 115.92s(cpu) 
 Tue Jan 21 14:52:32 2020

        *************************************************************
        *                                                           *
        *  Thank you very much for using Q-Chem.  Have a nice day.  *
        *                                                           *
        *************************************************************


0 sent ACK to 0 
now end server 0 ... 
cleanup process ... done

Running Job 2 of 2 ZrOx.in
qchem ZrOx.in_20894.1 /tmp/5795537.priya/ZrOx.save/ 1
/usr/usc/qchem/4.4/bin/mpi/mpirun_qchem -machinefile /usr/usc/qchem/4.4/bin/mpi/machines -np 1 /usr/usc/qchem/4.4/exe/qcprog.exe ZrOx.in_20894.1 /tmp/5795537.priya/ZrOx.save/

Process 0 of 1 is on hpc0244.hpcc.usc.edu - thread support 0
initial socket setup ...start
initial socket setup ...done 
now start server 0 ... 
Check license passed

                  Welcome to Q-Chem
     A Quantum Leap Into The Future Of Chemistry


 Q-Chem 4.4, Q-Chem, Inc., Pleasanton, CA (2016)

 Y. Shao,  Z. Gan,  E. Epifanovsky,  A. T. B. Gilbert,  M. Wormit,  
 J. Kussmann,  A. W. Lange,  A. Behn,  J. Deng,  X. Feng,  D. Ghosh,  
 M. Goldey,  P. R. Horn,  L. D. Jacobson,  I. Kaliman,  F.Rob,  
 R. Z. Khaliullin,  T. Kus,  A. Landau,  J. Liu,  E. I. Proynov,  Y. M. Rhee,  
 R. M. Richard,  M. A. Rohrdanz,  R. P. Steele,  E. J. Sundstrom,  
 H. L. Woodcock III,  P. M. Zimmerman,  D. Zuev,  B. Albrecht,  E. Alguire,  
 B. Austin,  S. A. Baeppler,  G. J. O. Beran,  Y. A. Bernard,  E. Berquist,  
 K. Brandhorst,  K. B. Bravaya,  S. T. Brown,  D. Casanova,  C.-M. Chang,  
 Y. Chen,  S. H. Chien,  K. D. Closser,  M. P. Coons,  D. L. Crittenden,  
 S. Dasgupta,  M. Diedenhofen,  R. A. DiStasio Jr.,  H. Do,  A. D. Dutoi,  
 R. G. Edgar,  P.-T. Fang,  S. Fatehi,  Q. Feng,  L. Fusti-Molnar,  
 A. Ghysels,  A. Golubeva-Zadorozhnaya,  J. Gomes,  A. Gunina,  
 M. W. D. Hanson-Heine,  P. H. P. Harbach,  A. W. Hauser,  E. G. Hohenstein,  
 Z. C. Holden,  K. Hui,  T.-C. Jagau,  H. Ji,  B. Kaduk,  K. Khistyaev,  
 Jaehoon Kim,  Jihan Kim,  R. A. King,  P. Klunzinger,  D. Kosenkov,  
 T. Kowalczyk,  C. M. Krauter,  A. Kunitsa,  K. U. Lao,  A. Laurent,  
 K. V. Lawler,  D. Lefrancois,  S. Lehtola,  S. V. Levchenko,  C. Y. Lin,  
 Y.-S. Lin,  F. Liu,  E. Livshits,  R. C. Lochan,  A. Luenser,  P. Manohar,  
 S. F. Manzer,  S.-P. Mao,  Y. Mao,  N. Mardirossian,  A. V. Marenich,  
 L. A. Martinez-Martinez,  S. A. Maurer,  N. J. Mayhall,  J.-M. Mewes,  
 A. F. Morrison,  K. Nanda,  C. M. Oana,  R. Olivares-Amaya,  D. P. O'Neill,  
 J. A. Parkhill,  T. M. Perrine,  R. Peverati,  P. A. Pieniazek,  F. Plasser,  
 A. Prociuk,  D. R. Rehn,  E. Rosta,  N. J. Russ,  N. Sergueev,  
 S. M. Sharada,  S. Sharma,  D. W. Small,  A. Sodt,  T. Stauch,  T. Stein,  
 D. Stuck,  Y.-C. Su,  A. J. W. Thom,  T. Tsuchimochi,  L. Vogt,  O. Vydrov,  
 T. Wang,  M. A. Watson,  J. Wenzel,  A. White,  C. F. Williams,  
 V. Vanovschi,  S. Yeganeh,  S. R. Yost,  Z.-Q. You,  I. Y. Zhang,  X. Zhang,  
 Y. Zhao,  B. R. Brooks,  G. K. L. Chan,  D. M. Chipman,  C. J. Cramer,  
 W. A. Goddard III,  M. S. Gordon,  W. J. Hehre,  A. Klamt,  
 H. F. Schaefer III,  M. W. Schmidt,  C. D. Sherrill,  D. G. Truhlar,  
 A. Warshel,  X. Xu,  A. Aspuru-Guzik,  R. Baer,  A. T. Bell,  N. A. Besley,  
 J.-D. Chai,  A. Dreuw,  B. D. Dunietz,  T. R. Furlani,  S. R. Gwaltney,  
 C.-P. Hsu,  Y. Jung,  J. Kong,  D. S. Lambrecht,  W. Liang,  C. Ochsenfeld,  
 V. A. Rassolov,  L. V. Slipchenko,  J. E. Subotnik,  T. Van Voorhis,  
 J. M. Herbert,  A. I. Krylov,  P. M. W. Gill,  M. Head-Gordon

 Contributors to earlier versions of Q-Chem not listed above: 
 R. D. Adamson,  J. Baker,  E. F. C. Byrd,  A. K. Chakraborty,  C.-L. Cheng,  
 H. Dachsel,  R. J. Doerksen,  G. Hawkins,  A. Heyden,  S. Hirata,  
 G. Kedziora,  F. J. Keil,  C. Kelley,  P. P. Korambath,  W. Kurlancheek,  
 A. M. Lee,  M. S. Lee,  D. Liotard,  I. Lotan,  P. E. Maslen,  N. Nair,  
 D. Neuhauser,  R. Olson,  B. Peters,  J. Ritchie,  N. E. Schultz,  
 N. Shenvi,  A. C. Simmonett,  K. S. Thanthiriwatte,  Q. Wu,  W. Zhang

 Please cite Q-Chem as follows:
 Y. Shao et al., Mol. Phys. 113, 184-215 (2015)
 DOI: 10.1080/00268976.2014.952696

 Q-Chem 4.4.1 for Intel X86 Linux

 Parts of Q-Chem use Armadillo 5.200.1 (Boston Tea Smuggler).
 http://arma.sourceforge.net/

 Q-Chem begins on Tue Jan 21 14:52:41 2020  

Host: 
0

     Scratch files written to /tmp/5795537.priya/ZrOx.save//
 Jul2716 11668_ 21447  21445 5558   
 Parallel job on  1  processors
Processing $rem in /usr/usc/qchem/4.4/config/preferences.
 MEM_TOTAL  2000 
The previous job contains 0 fragments, simply inherited here

Checking the input file for inconsistencies... 	...done.

--------------------------------------------------------------
User input:
--------------------------------------------------------------

$comment
-----------------------
A GEOMETRY OPTIMIZATION
-----------------------
$end

$molecule
READ
$end

$rem
JOBTYPE   OPT
METHOD   B3LYP
BASIS   GEN
ECP   GEN
SCF_GUESS   READ
MAX_SCF_CYCLES   200
SCF_CONVERGENCE 8
SCF_PRINT 1
PDB_PRINT 2
THRESH 14
VARTHRESH 14
INCDFT FALSE
SYMMETRY False
Sym_ignore True
SCF_ALGORITHM GDM
XC_GRID 000128000302
GEOM_OPT_MAX_CYCLES 200
DFT_D           EMPIRICAL_GRIMME3
DFT_D3_S6       1000
DFT_D3_RS6     1261
DFT_D3_S8      1703
DFT_D3_3BODY    FALSE
SCF_PRINT 1
PDB_PRINT 2
$end

$basis
O
6-31+G**
****
S
6-31+G**
****
Zr
LanL2DZ
****
$end

$ecp
Zr
LanL2DZ
****
$end

--------------------------------------------------------------
 ----------------------------------------------------------------
             Standard Nuclear Orientation (Angstroms)
    I     Atom           X                Y                Z
 ----------------------------------------------------------------
    1      Zr      0.0000000000     0.0000000000     0.0000000000
    2      S       0.0000000000     0.0000000000     1.7812800000
    3      S       0.0000000000     0.0000000000    -1.7812700000
 ----------------------------------------------------------------
 Nuclear Repulsion Energy =   152.1028845280 hartrees
 There are       22 alpha and       22 beta electrons

 Q-Chem warning in module /home/scratch/svnadmin/11668_zgan/qchem/forms1/BasisType.C, line 1419:

 Setting pure/cartesian flag to 2111 for general basis


 Requested basis set is non-standard
 There are 20 shells and 66 basis functions

 Total QAlloc Memory Limit   2000 MB
 Mega-Array Size        61 MB
 MEM_STATIC part        62 MB
 A cutoff of  1.0D-14 yielded    206 shell pairs
 There are      2283 function pairs (      2577 Cartesian)
 
 -------------------------------------------------------
 OpenMP Integral Computing Module                       
 Release: version 1.0, May 2013, Q-Chem Inc. Pittsburgh 
 -------------------------------------------------------
 Integral Job Info:
 Integral job number is                      11
 Integral operator is                         1
 short-range coefficients                     0
 long-range coefficients              100000000
 Omega coefficients                           0
 if combine SR and LR in K                    0
 Integral screening is                        0
 Integral computing path is                   2
 max size of driver memory is            800000
 size of driver memory is                593474
 size of scratch memory is             15166112
 max col of scratch BK array               1296
 max len of scratch array in speh3          155
 max len of scratch index in speh4           18
 max int batch size is                      520
 min int batch size is                       52
 fixed nKL is                                52
 max L of basis functions is                  2
 order of int derivative is                   0
 number of shells is                         20
 number of basis is                          70
 number of cartesian basis is                70
 number of contracted shell pairs           206
 number of primitive shell pairs           1354
 maxK2 (contraction) of shell pair           36
 max number of K2 of shell pair               1
 max number of CS2 of shell pair             12
 max number of PS2 of shell pair             72
 mem total for path MDJ                   14536
 -------------------------------------------------------
 Requested basis set is non-standard
 Compound shells will be simplified
 There are 28 shells and 66 basis functions
 A cutoff of  1.0D-14 yielded    397 shell pairs
 There are      2259 function pairs (      2553 Cartesian)
 Smallest overlap matrix eigenvalue = 1.22E-03

 Scale SEOQF with 1.000000e-01/1.000000e-01/1.000000e-01

 Standard Electronic Orientation quadrupole field applied
 Nucleus-field energy     =    -0.0000000109 hartrees
 Guess MOs from SCF MO coefficient file
 Reading MOs from coefficient file
 Reading MOs from coefficient file
 A restricted hybrid HF-DFT SCF calculation will be
 performed using Geometric Direct Minimization
 Exchange:     0.2000 Hartree-Fock + 0.0800 Slater + 0.7200 B88
 Correlation:  0.1900 VWN1RPA + 0.8100 LYP
 Using Euler-Maclaurin-Lebedev (128,302) quadrature formula
 Dispersion:   Grimme D3
 SCF converges when RMS gradient is below 1.0E-08
 Maximum number of minimization steps = 200
 using 12 threads for integral computing 
 -------------------------------------------------------
 OpenMP BLAS3 based DFT computing Module                
 Release: version 1.0, May 2013, Q-Chem Inc. Pittsburgh 
 -------------------------------------------------------
 
   ------------------- Entering Geometric Direct Minimization ------------------
   GDM:         diagonal hessian shift is      0.000000000000000E+000
   GDM::PreWSS: input subspace size is                  1
   GDM::PreWSS: working subspace size set to            1
   GDM::PrEWSS: # of linearly dependent vectors =            0
   GDM::PrEWSS: Max dev from orthonormality =   0.000000000000000E+000
   GDM::BFGS:   lowest Hinv e-value     1.00000000000000     
   GDM::BFGS:   highest Hinv e-value    1.00000000000000     
   GDM::      : max scaling in EWCs is          2.82842712474619     
   GDM::      : max rotation in step is       -1.063043380223044E-007
   GDM::        grad.step =  -2.465374461431669E-014
   ------- Leaving GDM -- hopefully with a step in the right direction! --------
 
 ---------------------------------------
  Cycle       Energy        RMS Gradient
 ---------------------------------------
    1    -842.5726144157      8.23E-08  Gap = 0.00 eV  Normal BFGS step
 
   ------------------- Entering Geometric Direct Minimization ------------------
   GDM::trust : actual energy change is       -1.136868377216160E-013
   GDM::trust : predicted energy change was   -3.698061692147502E-014
   GDM::trust : updated trust radius is        0.330000000000000     
   GDM:         diagonal hessian shift is      0.000000000000000E+000
   GDM::PreWSS: input subspace size is                  2
   GDM::PreWSS: working subspace size set to            2
   GDM::PrEWSS: # of linearly dependent vectors =            1
   GDM::PrEWSS: Max dev from orthonormality =   4.440892098500626E-016
   GDM::BFGS:   lowest Hinv e-value    0.552343561687877     
   GDM::BFGS:   highest Hinv e-value    1.76118709513047     
   GDM::      : max scaling in EWCs is          2.82842712474619     
   GDM::      : max rotation in step is        9.906682345718552E-008
   GDM::        grad.step =  -8.419548373809502E-015
   ------- Leaving GDM -- hopefully with a step in the right direction! --------
 
    2    -842.5726144157      4.96E-08  Gap = 0.00 eV  Normal BFGS step
 
   ------------------- Entering Geometric Direct Minimization ------------------
   GDM::trust : actual energy change is       -9.094947017729282E-013
   GDM::trust : predicted energy change was   -1.262932256071425E-014
   GDM::trust : updated trust radius is        0.330000000000000     
   GDM:         diagonal hessian shift is      0.000000000000000E+000
   GDM::PreWSS: input subspace size is                  3
   GDM::PreWSS: working subspace size set to            3
   GDM::PrEWSS: # of linearly dependent vectors =            2
   GDM::PrEWSS: Max dev from orthonormality =   1.887379141862766E-015
   GDM::BFGS:   lowest Hinv e-value    0.200617910871504     
   GDM::BFGS:   highest Hinv e-value    1.11486391239835     
   GDM::      : max scaling in EWCs is          2.82842712474619     
   GDM::      : max rotation in step is       -8.910682150240670E-008
   GDM::        grad.step =  -2.291945780590769E-014
   ------- Leaving GDM -- hopefully with a step in the right direction! --------
 
    3    -842.5726144157      1.65E-07  Gap = 0.00 eV  Normal BFGS step
 
   ------------------- Entering Geometric Direct Minimization ------------------
   GDM::trust : actual energy change is        1.136868377216160E-013
   GDM::trust : predicted energy change was   -3.437918670886154E-014
   GDM::trust : updated trust radius is        0.108900000000000     
   GDM::WARNING energy changes are now smaller than effective accuracy.
   GDM::        calculation will continue, but THRESH should be increased
   GDM::        or SCF_CONVERGENCE decreased.
   GDM::        effective_thresh =   2.200000000000000E-010
   GDM:         diagonal hessian shift is      0.000000000000000E+000
   GDM::PreWSS: input subspace size is                  4
   GDM::PreWSS: working subspace size set to            4
   GDM::PrEWSS: # of linearly dependent vectors =            3
   GDM::PrEWSS: Max dev from orthonormality =   2.914335439641036E-015
   GDM::BFGS:   lowest Hinv e-value    0.200458849759853     
   GDM::BFGS:   highest Hinv e-value    1.11992139813890     
   GDM::      : max scaling in EWCs is          2.82842712474619     
   GDM::      : max rotation in step is       -7.636634041717512E-009
   GDM::        grad.step =  -5.915088165449591E-017
   ------- Leaving GDM -- hopefully with a step in the right direction! --------
 
    4    -842.5726144157      3.04E-09 Convergence criterion met
 ---------------------------------------
 One-Electron    Energy = -1478.4538503642
 Total Coulomb   Energy =   541.2988958946
 Alpha Exchange  Energy =    -5.5586813217
 Beta  Exchange  Energy =    -5.5586813217
 DFT   Exchange  Energy =   -44.2414081788
 DFT Correlation Energy =    -2.1617736410
 Nuclear Repu.   Energy =   152.1028845171
 Nuclear Attr.   Energy = -2298.7185840401
 Kinetic         Energy =   820.2647336759
 SCF time:  CPU 8.56 s  wall 1.27 s
 SCF   energy in the final basis set = -842.5726144157
 Total energy in the final basis set = -842.5726144157
 
 --------------------------------------------------------------
 
                    Orbital Energies (a.u.)
 --------------------------------------------------------------
 
 Alpha MOs
 -- Occupied --
-88.911 -88.911  -7.998  -7.998  -5.966  -5.966  -5.952  -5.952
 -5.952  -5.952  -2.086  -1.395  -1.259  -1.259  -0.755  -0.640
 -0.411  -0.411  -0.391  -0.309  -0.309  -0.180
 -- Virtual --
 -0.135  -0.105  -0.105  -0.031  -0.031   0.001   0.001   0.011
  0.011   0.076   0.088   0.088   0.095   0.099   0.099   0.110
  0.110   0.120   0.176   0.186   0.186   0.239   0.284   0.284
  0.323   0.518   0.518   0.524   0.524   0.580   0.586   0.715
  0.715   0.723   0.729   0.729   0.751   0.751   0.818   0.942
  0.942   1.003   1.031  16.385
 --------------------------------------------------------------
 
          Ground-State Mulliken Net Atomic Charges

     Atom                 Charge (a.u.)
  ----------------------------------------
      1 Zr                   -0.096597
      2 S                     0.048300
      3 S                     0.048297
  ----------------------------------------
  Sum of atomic charges =     0.000000

 -----------------------------------------------------------------
                    Cartesian Multipole Moments
 -----------------------------------------------------------------
    Charge (ESU x 10^10)
                 0.0000
    Dipole Moment (Debye)
         X       0.0000      Y       0.0000      Z      -0.0001
       Tot       0.0001
    Quadrupole Moments (Debye-Ang)
        XX     -51.0201     XY       0.0000     YY     -51.0201
        XZ       0.0000     YZ       0.0000     ZZ     -45.0567
[...]
   GDM::PrEWSS: # of linearly dependent vectors =            1
   GDM::PrEWSS: Max dev from orthonormality =   2.220446049250313E-016
   GDM::BFGS:   lowest Hinv e-value    0.475728140354193     
   GDM::BFGS:   highest Hinv e-value    1.69348010532944     
   GDM::      : max scaling in EWCs is          2.82826645903659     
   GDM::      : max rotation in step is       -2.615510935464291E-004
   GDM::        grad.step =  -3.207935796693181E-008
   ------- Leaving GDM -- hopefully with a step in the right direction! --------
 
    2    -842.9451352309      9.09E-05  Gap = 27.21 eV  Normal BFGS step
 
   ------------------- Entering Geometric Direct Minimization ------------------
   GDM::trust : actual energy change is        2.627302819746546E-008
   GDM::trust : predicted energy change was   -4.811903695039773E-008
   GDM::trust : updated trust radius is        0.108900000000000     
   GDM::search:  On step            1 .  The current bracket is:
       left   : x =  0.0000E+00, e =      -842.9451352309, g = -0.9690E-04
       current: x =  0.3310E-03, e =      -842.9451352046, g =  0.1763E-03
       right  : x =  0.1000E+04, e =      1000.0000000000, g =  0.1000E+04
       next   : x =  0.9100E-04
   GDM::      : max rotation in step is       -7.189415641787091E-005
   ------- Leaving GDM -- hopefully with a step in the right direction! --------
 
    3    -842.9451352046      1.86E-05  Gap = 0.00 eV  Line search: overstep
 
   ------------------- Entering Geometric Direct Minimization ------------------
   GDM::trust : actual energy change is       -1.080252332030796E-008
   GDM::trust : predicted energy change was   -4.811903695039773E-008
   GDM::trust : updated trust radius is        0.108900000000000     
   GDM:         diagonal hessian shift is      0.000000000000000E+000
   GDM::PreWSS: input subspace size is                  3
   GDM::PreWSS: working subspace size set to            3
   GDM::PrEWSS: # of linearly dependent vectors =            2
   GDM::PrEWSS: Max dev from orthonormality =   4.718447854656915E-016
   GDM::BFGS:   lowest Hinv e-value    0.230044712547064     
   GDM::BFGS:   highest Hinv e-value    1.37705660370207     
   GDM::      : max scaling in EWCs is          2.82825212679597     
   GDM::      : max rotation in step is       -1.112030071362979E-004
   GDM::        grad.step =  -8.378850487303587E-009
   ------- Leaving GDM -- hopefully with a step in the right direction! --------
 
    4    -842.9451352417      3.53E-05  Gap = 0.00 eV  Normal BFGS step
 
   ------------------- Entering Geometric Direct Minimization ------------------
   GDM::trust : actual energy change is       -6.191726242832374E-009
   GDM::trust : predicted energy change was   -1.256827573095538E-008
   GDM::trust : updated trust radius is        0.330000000000000     
   GDM:         diagonal hessian shift is      0.000000000000000E+000
   GDM::PreWSS: input subspace size is                  4
   GDM::PreWSS: working subspace size set to            4
   GDM::PrEWSS: # of linearly dependent vectors =            3
   GDM::PrEWSS: Max dev from orthonormality =   2.706168622523819E-016
   GDM::BFGS:   lowest Hinv e-value    0.231621920656403     
   GDM::BFGS:   highest Hinv e-value    1.50430947464750     
   GDM::      : max scaling in EWCs is          2.82824415820804     
   GDM::      : max rotation in step is       -5.458433359672116E-005
   GDM::        grad.step =  -1.438617725581743E-009
   ------- Leaving GDM -- hopefully with a step in the right direction! --------
 
    5    -842.9451352479      2.04E-05  Gap = 0.00 eV  Normal BFGS step
 
   ------------------- Entering Geometric Direct Minimization ------------------
   GDM::trust : actual energy change is       -1.655735104577616E-009
   GDM::trust : predicted energy change was   -2.157926588372615E-009
   GDM::trust : updated trust radius is        0.330000000000000     
   GDM:         diagonal hessian shift is      0.000000000000000E+000
   GDM::PreWSS: input subspace size is                  5
   GDM::PreWSS: working subspace size set to            5
   GDM::PrEWSS: # of linearly dependent vectors =            4
   GDM::PrEWSS: Max dev from orthonormality =   7.840950111415168E-016
   GDM::BFGS:   lowest Hinv e-value    0.224721541095296     
   GDM::BFGS:   highest Hinv e-value    1.79291371613354     
   GDM::      : max scaling in EWCs is          2.82825968165476     
   GDM::      : max rotation in step is       -4.463397220127615E-005
   GDM::        grad.step =  -2.199159152858519E-010
   ------- Leaving GDM -- hopefully with a step in the right direction! --------
 
    6    -842.9451352495      7.64E-06  Gap = 0.00 eV  Normal BFGS step
 
   ------------------- Entering Geometric Direct Minimization ------------------
   GDM::trust : actual energy change is       -2.311253410880454E-010
   GDM::trust : predicted energy change was   -3.298738729287778E-010
   GDM::trust : updated trust radius is        0.330000000000000     
   GDM:         diagonal hessian shift is      0.000000000000000E+000
   GDM::PreWSS: input subspace size is                  6
   GDM::PreWSS: working subspace size set to            6
   GDM::PrEWSS: # of linearly dependent vectors =            5
   GDM::PrEWSS: Max dev from orthonormality =   1.249000902703301E-015
   GDM::BFGS:   lowest Hinv e-value    0.233995657152566     
   GDM::BFGS:   highest Hinv e-value    2.73561887836466     
   GDM::      : max scaling in EWCs is          2.82820736298871     
   GDM::      : max rotation in step is       -2.169973764672412E-005
   GDM::        grad.step =  -6.502552358088827E-011
   ------- Leaving GDM -- hopefully with a step in the right direction! --------
 
    7    -842.9451352498      3.71E-06  Gap = 0.00 eV  Normal BFGS step
 
   ------------------- Entering Geometric Direct Minimization ------------------
   GDM::trust : actual energy change is        6.127720553195104E-011
   GDM::trust : predicted energy change was   -9.753828537133241E-011
   GDM::trust : updated trust radius is        0.108900000000000     
   GDM::WARNING energy changes are now smaller than effective accuracy.
   GDM::        calculation will continue, but THRESH should be increased
   GDM::        or SCF_CONVERGENCE decreased.
   GDM::        effective_thresh =   2.200000000000000E-010
   GDM:         diagonal hessian shift is      0.000000000000000E+000
   GDM::PreWSS: input subspace size is                  7
   GDM::PreWSS: working subspace size set to            7
   GDM::PrEWSS: # of linearly dependent vectors =            6
   GDM::PrEWSS: Max dev from orthonormality =   2.588207426157396E-015
   GDM::BFGS:   lowest Hinv e-value    0.235404289060357     
   GDM::BFGS:   highest Hinv e-value    2.57988076495424     
   GDM::      : max scaling in EWCs is          2.82836511330376     
   GDM::      : max rotation in step is        7.209273733330219E-006
   GDM::        grad.step =  -9.298269238083190E-011
   ------- Leaving GDM -- hopefully with a step in the right direction! --------
 
    8    -842.9451352497      1.03E-05  Gap = 0.00 eV  Normal BFGS step
 
   ------------------- Entering Geometric Direct Minimization ------------------
   GDM::trust : actual energy change is       -8.890310709830374E-011
   GDM::trust : predicted energy change was   -1.394740385712478E-010
   GDM::trust : updated trust radius is        0.330000000000000     
   GDM:         diagonal hessian shift is      0.000000000000000E+000
   GDM::PreWSS: input subspace size is                  8
   GDM::PreWSS: working subspace size set to            8
   GDM::PrEWSS: # of linearly dependent vectors =            7
   GDM::PrEWSS: Max dev from orthonormality =   2.865069292923295E-014
   GDM::BFGS:   lowest Hinv e-value    0.235891053674035     
   GDM::BFGS:   highest Hinv e-value    2.63688677880327     
   GDM::      : max scaling in EWCs is          2.82824487456118     
   GDM::      : max rotation in step is        2.239113497030192E-006
   GDM::        grad.step =  -1.571173716918339E-012
   ------- Leaving GDM -- hopefully with a step in the right direction! --------
 
    9    -842.9451352498      4.44E-07  Gap = 0.00 eV  Normal BFGS step
 
   ------------------- Entering Geometric Direct Minimization ------------------
   GDM::trust : actual energy change is       -6.821210263296962E-013
   GDM::trust : predicted energy change was   -2.356760575377509E-012
   GDM::trust : updated trust radius is        0.330000000000000     
   GDM:         diagonal hessian shift is      0.000000000000000E+000
   GDM::PreWSS: input subspace size is                  9
   GDM::PreWSS: working subspace size set to            9
   GDM::PrEWSS: # of linearly dependent vectors =            8
   GDM::PrEWSS: Max dev from orthonormality =   2.620820227505760E-014
   GDM::BFGS:   lowest Hinv e-value    0.234626602936943     
   GDM::BFGS:   highest Hinv e-value    2.38146306381920     
   GDM::      : max scaling in EWCs is          2.82824869185122     
   GDM::      : max rotation in step is       -6.692536204628827E-007
   GDM::        grad.step =  -1.965280169000995E-013
   ------- Leaving GDM -- hopefully with a step in the right direction! --------
 
   10    -842.9451352498      1.89E-07  Gap = 0.00 eV  Normal BFGS step
 
   ------------------- Entering Geometric Direct Minimization ------------------
   GDM::trust : actual energy change is       -1.364242052659392E-012
   GDM::trust : predicted energy change was   -2.947920253501492E-013
   GDM::trust : updated trust radius is        0.330000000000000     
   GDM:         diagonal hessian shift is      0.000000000000000E+000
   GDM::PreWSS: input subspace size is                 10
   GDM::PreWSS: working subspace size set to           10
   GDM::PrEWSS: # of linearly dependent vectors =            9
   GDM::PrEWSS: Max dev from orthonormality =   4.368033712509600E-014
   GDM::BFGS:   lowest Hinv e-value    0.234645014293708     
   GDM::BFGS:   highest Hinv e-value    2.43970552706069     
   GDM::      : max scaling in EWCs is          2.82824886604739     
   GDM::      : max rotation in step is       -2.892858891920246E-008
   GDM::        grad.step =  -2.595738216508025E-015
   ------- Leaving GDM -- hopefully with a step in the right direction! --------
 
   11    -842.9451352498      1.25E-08  Gap = 0.00 eV  Normal BFGS step
 
   ------------------- Entering Geometric Direct Minimization ------------------
   GDM::trust : actual energy change is        2.273736754432321E-013
   GDM::trust : predicted energy change was   -3.893607324762038E-015
   GDM::trust : updated trust radius is        0.108900000000000     
   GDM::WARNING energy changes are now smaller than effective accuracy.
   GDM::        calculation will continue, but THRESH should be increased
   GDM::        or SCF_CONVERGENCE decreased.
   GDM::        effective_thresh =   2.200000000000000E-010
   GDM:         diagonal hessian shift is      0.000000000000000E+000
   GDM::PreWSS: input subspace size is                 11
   GDM::PreWSS: working subspace size set to           11
   GDM::PrEWSS: # of linearly dependent vectors =           10
   GDM::PrEWSS: Max dev from orthonormality =   1.580471864492949E-013
   GDM::BFGS:   lowest Hinv e-value    0.234648989714926     
   GDM::BFGS:   highest Hinv e-value    2.37890679133786     
   GDM::      : max scaling in EWCs is          2.82824887270425     
   GDM::      : max rotation in step is        1.488334770610386E-008
   GDM::        grad.step =  -8.001395712789105E-016
   ------- Leaving GDM -- hopefully with a step in the right direction! --------
 
   12    -842.9451352498      8.91E-09 Convergence criterion met
 ---------------------------------------
 One-Electron    Energy = -1413.7153719168
 Total Coulomb   Energy =   509.8605121090
 Alpha Exchange  Energy =    -5.5325579351
 Beta  Exchange  Energy =    -5.5325579351
 DFT   Exchange  Energy =   -44.0216519973
 DFT Correlation Energy =    -2.1336745614
 Nuclear Repu.   Energy =   118.1301669869
 Nuclear Attr.   Energy = -2231.9337844950
 Kinetic         Energy =   818.2184125782
 SCF time:  CPU 22.33 s  wall 2.12 s
 SCF   energy in the final basis set = -842.9451352498
 Total energy in the final basis set = -842.9451352498
 
 --------------------------------------------------------------
 
                    Orbital Energies (a.u.)
 --------------------------------------------------------------
 
 Alpha MOs
 -- Occupied --
-88.834 -88.834  -7.911  -7.910  -5.871  -5.871  -5.871  -5.871
 -5.868  -5.868  -2.135  -1.339  -1.339  -1.314  -0.665  -0.633
 -0.326  -0.305  -0.305  -0.252  -0.252  -0.238
 -- Virtual --
 -0.176  -0.176  -0.174  -0.092  -0.092  -0.027  -0.027   0.012
  0.015   0.065   0.065   0.075   0.075   0.086   0.089   0.116
  0.116   0.125   0.141   0.141   0.152   0.201   0.238   0.238
  0.290   0.531   0.539   0.539   0.563   0.563   0.594   0.608
  0.711   0.798   0.798   0.809   0.809   0.810   0.810   0.841
  0.862   0.888   0.888   4.099
 --------------------------------------------------------------
 
          Ground-State Mulliken Net Atomic Charges

     Atom                 Charge (a.u.)
  ----------------------------------------
      1 Zr                    0.884463
      2 S                    -0.442217
      3 S                    -0.442247
  ----------------------------------------
  Sum of atomic charges =     0.000000

 -----------------------------------------------------------------
                    Cartesian Multipole Moments
 -----------------------------------------------------------------
    Charge (ESU x 10^10)
                 0.0000
    Dipole Moment (Debye)
         X       0.0000      Y       0.0000      Z       0.0014
       Tot       0.0014
    Quadrupole Moments (Debye-Ang)
        XX     -46.7305     XY       0.0000     YY     -46.7305
        XZ       0.0000     YZ       0.0000     ZZ     -77.7623
    Octopole Moments (Debye-Ang^2)
       XXX       0.0000    XXY       0.0000    XYY       0.0000
       YYY       0.0000    XXZ       0.0014    XYZ       0.0000
       YYZ       0.0014    XZZ       0.0000    YZZ       0.0000
       ZZZ       0.0070
    Hexadecapole Moments (Debye-Ang^3)
      XXXX     -74.3468   XXXY       0.0000   XXYY     -24.7823
      XYYY       0.0000   YYYY     -74.3468   XXXZ       0.0000
      XXYZ       0.0000   XYYZ       0.0000   YYYZ       0.0000
      XXZZ    -184.6440   XYZZ       0.0000   YYZZ    -184.6440
      XZZZ       0.0000   YZZZ       0.0000   ZZZZ   -1156.3335
 -----------------------------------------------------------------
 Calculating analytic gradient of the SCF energy
 Gradient of SCF Energy
            1           2           3
    1   0.0000000  -0.0000000  -0.0000000
    2   0.0000000  -0.0000000  -0.0000000
    3   0.0000537   0.0000151  -0.0000688
 Max gradient component =       6.879E-05
 RMS gradient           =       2.952E-05
 Gradient time:  CPU 7.32 s  wall 0.75 s
 Geometry Optimization Parameters
   NAtoms,    NIC,     NZ,  NCons,   NDum,   NFix, NCnnct, MaxDiis
        3       9       0       0       0       0       0       0

 Cartesian Hessian Update
 Hessian Updated using BFGS Update


** GEOMETRY OPTIMIZATION IN CARTESIAN COORDINATES **
   Searching for a Minimum

   Optimization Cycle:  10

                       Coordinates (Angstroms)
     ATOM                X               Y               Z
      1  Zr        0.0000000000    0.0000000000    0.0000537475
      2  S         0.0000000000    0.0000000000    2.2935296600
      3  S         0.0000000000    0.0000000000   -2.2935734075
   Point Group: c1    Number of degrees of freedom:     3


   Energy is   -842.945135250


 Translations and Rotations Projected Out of Hessian

  2 Hessian modes will be used to form the next step
  Hessian Eigenvalues:
     0.304004    0.563905

 Minimum Search - Taking Simple RFO Step
 Searching for Lamda that Minimizes Along All modes
 Value Taken    Lamda =   0.00000000
 Step Taken.  Stepsize is  0.000226

                             Maximum     Tolerance    Cnvgd?
         Gradient           0.000069      0.000300     YES
         Displacement       0.000185      0.001200     YES
         Energy change      0.000000      0.000001     YES


                       Distance Matrix (Angstroms)
             Zr(  1)   S (  2)
   S (  2)  2.293476
   S (  3)  2.293627  4.587103
 
 Final energy is   -842.945135249782     


 ******************************
 **  OPTIMIZATION CONVERGED  **
 ******************************

                       Coordinates (Angstroms)
     ATOM                X               Y               Z
      1  Zr        0.0000000000    0.0000000000    0.0000537475
      2  S         0.0000000000    0.0000000000    2.2935296600
      3  S         0.0000000000    0.0000000000   -2.2935734075

Z-matrix Print:
$molecule
0 1
Zr
S  1 2.293476
S  1 2.293627 2 179.999999
$end

 
 --------------------------------------------------------------
 
                    Orbital Energies (a.u.)
 --------------------------------------------------------------
 
 Alpha MOs
 -- Occupied --
-88.834 -88.834  -7.911  -7.910  -5.871  -5.871  -5.871  -5.871
 -5.868  -5.868  -2.135  -1.339  -1.339  -1.314  -0.665  -0.633
 -0.326  -0.305  -0.305  -0.252  -0.252  -0.238
 -- Virtual --
 -0.176  -0.176  -0.174  -0.092  -0.092  -0.027  -0.027   0.012
  0.015   0.065   0.065   0.075   0.075   0.086   0.089   0.116
  0.116   0.125   0.141   0.141   0.152   0.201   0.238   0.238
  0.290   0.531   0.539   0.539   0.563   0.563   0.594   0.608
  0.711   0.798   0.798   0.809   0.809   0.810   0.810   0.841
  0.862   0.888   0.888   4.099
 --------------------------------------------------------------
 
          Ground-State Mulliken Net Atomic Charges

     Atom                 Charge (a.u.)
  ----------------------------------------
      1 Zr                    0.884463
      2 S                    -0.442217
      3 S                    -0.442247
  ----------------------------------------
  Sum of atomic charges =     0.000000

 -----------------------------------------------------------------
                    Cartesian Multipole Moments
 -----------------------------------------------------------------
    Charge (ESU x 10^10)
                 0.0000
    Dipole Moment (Debye)
         X       0.0000      Y       0.0000      Z       0.0014
       Tot       0.0014
    Quadrupole Moments (Debye-Ang)
        XX     -46.7305     XY       0.0000     YY     -46.7305
        XZ       0.0000     YZ       0.0000     ZZ     -77.7623
    Octopole Moments (Debye-Ang^2)
       XXX       0.0000    XXY       0.0000    XYY       0.0000
       YYY       0.0000    XXZ       0.0014    XYZ       0.0000
       YYZ       0.0014    XZZ       0.0000    YZZ       0.0000
       ZZZ       0.0070
    Hexadecapole Moments (Debye-Ang^3)
      XXXX     -74.3468   XXXY       0.0000   XXYY     -24.7823
      XYYY       0.0000   YYYY     -74.3468   XXXZ       0.0000
      XXYZ       0.0000   XYYZ       0.0000   YYYZ       0.0000
      XXZZ    -184.6440   XYZZ       0.0000   YYZZ    -184.6440
      XZZZ       0.0000   YZZZ       0.0000   ZZZZ   -1156.3335
 -----------------------------------------------------------------
Archival summary:
1\1\hpc0244\OPT\ProcedureUnspecified\BasisUnspecified\r12(\liqiuy\TueJan2114:53:292020TueJan2114:53:292020\0\\#,OPT,ProcedureUnspecified,BasisUnspecified,\\28,1\Zr\S,1,2.29348\S,1,2.29363,2,180\\\@

 Total job time:  47.81s(wall), 440.00s(cpu) 
 Tue Jan 21 14:53:29 2020

        *************************************************************
        *                                                           *
        *  Thank you very much for using Q-Chem.  Have a nice day.  *
        *                                                           *
        *************************************************************


0 sent ACK to 0 
now end server 0 ... 
cleanup process ... done
