
Running Job 1 of 1 ZrO.in
qchem ZrO.in_15873.0 /tmp/5625972.quick/ZrO.save/ 1
/usr/usc/qchem/4.4/bin/mpi/mpirun_qchem -machinefile /usr/usc/qchem/4.4/bin/mpi/machines -np 1 /usr/usc/qchem/4.4/exe/qcprog.exe ZrO.in_15873.0 /tmp/5625972.quick/ZrO.save/

Process 0 of 1 is on hpc1118.hpcc.usc.edu - thread support 0
initial socket setup ...start
initial socket setup ...done 
now start server 0 ... 
Check license passed

                  Welcome to Q-Chem
     A Quantum Leap Into The Future Of Chemistry


 Q-Chem 4.4, Q-Chem, Inc., Pleasanton, CA (2016)

 Y. Shao,  Z. Gan,  E. Epifanovsky,  A. T. B. Gilbert,  M. Wormit,  
 J. Kussmann,  A. W. Lange,  A. Behn,  J. Deng,  X. Feng,  D. Ghosh,  
 M. Goldey,  P. R. Horn,  L. D. Jacobson,  I. Kaliman,  F.Rob,  
 R. Z. Khaliullin,  T. Kus,  A. Landau,  J. Liu,  E. I. Proynov,  Y. M. Rhee,  
 R. M. Richard,  M. A. Rohrdanz,  R. P. Steele,  E. J. Sundstrom,  
 H. L. Woodcock III,  P. M. Zimmerman,  D. Zuev,  B. Albrecht,  E. Alguire,  
 B. Austin,  S. A. Baeppler,  G. J. O. Beran,  Y. A. Bernard,  E. Berquist,  
 K. Brandhorst,  K. B. Bravaya,  S. T. Brown,  D. Casanova,  C.-M. Chang,  
 Y. Chen,  S. H. Chien,  K. D. Closser,  M. P. Coons,  D. L. Crittenden,  
 S. Dasgupta,  M. Diedenhofen,  R. A. DiStasio Jr.,  H. Do,  A. D. Dutoi,  
 R. G. Edgar,  P.-T. Fang,  S. Fatehi,  Q. Feng,  L. Fusti-Molnar,  
 A. Ghysels,  A. Golubeva-Zadorozhnaya,  J. Gomes,  A. Gunina,  
 M. W. D. Hanson-Heine,  P. H. P. Harbach,  A. W. Hauser,  E. G. Hohenstein,  
 Z. C. Holden,  K. Hui,  T.-C. Jagau,  H. Ji,  B. Kaduk,  K. Khistyaev,  
 Jaehoon Kim,  Jihan Kim,  R. A. King,  P. Klunzinger,  D. Kosenkov,  
 T. Kowalczyk,  C. M. Krauter,  A. Kunitsa,  K. U. Lao,  A. Laurent,  
 K. V. Lawler,  D. Lefrancois,  S. Lehtola,  S. V. Levchenko,  C. Y. Lin,  
 Y.-S. Lin,  F. Liu,  E. Livshits,  R. C. Lochan,  A. Luenser,  P. Manohar,  
 S. F. Manzer,  S.-P. Mao,  Y. Mao,  N. Mardirossian,  A. V. Marenich,  
 L. A. Martinez-Martinez,  S. A. Maurer,  N. J. Mayhall,  J.-M. Mewes,  
 A. F. Morrison,  K. Nanda,  C. M. Oana,  R. Olivares-Amaya,  D. P. O'Neill,  
 J. A. Parkhill,  T. M. Perrine,  R. Peverati,  P. A. Pieniazek,  F. Plasser,  
 A. Prociuk,  D. R. Rehn,  E. Rosta,  N. J. Russ,  N. Sergueev,  
 S. M. Sharada,  S. Sharma,  D. W. Small,  A. Sodt,  T. Stauch,  T. Stein,  
 D. Stuck,  Y.-C. Su,  A. J. W. Thom,  T. Tsuchimochi,  L. Vogt,  O. Vydrov,  
 T. Wang,  M. A. Watson,  J. Wenzel,  A. White,  C. F. Williams,  
 V. Vanovschi,  S. Yeganeh,  S. R. Yost,  Z.-Q. You,  I. Y. Zhang,  X. Zhang,  
 Y. Zhao,  B. R. Brooks,  G. K. L. Chan,  D. M. Chipman,  C. J. Cramer,  
 W. A. Goddard III,  M. S. Gordon,  W. J. Hehre,  A. Klamt,  
 H. F. Schaefer III,  M. W. Schmidt,  C. D. Sherrill,  D. G. Truhlar,  
 A. Warshel,  X. Xu,  A. Aspuru-Guzik,  R. Baer,  A. T. Bell,  N. A. Besley,  
 J.-D. Chai,  A. Dreuw,  B. D. Dunietz,  T. R. Furlani,  S. R. Gwaltney,  
 C.-P. Hsu,  Y. Jung,  J. Kong,  D. S. Lambrecht,  W. Liang,  C. Ochsenfeld,  
 V. A. Rassolov,  L. V. Slipchenko,  J. E. Subotnik,  T. Van Voorhis,  
 J. M. Herbert,  A. I. Krylov,  P. M. W. Gill,  M. Head-Gordon

 Contributors to earlier versions of Q-Chem not listed above: 
 R. D. Adamson,  J. Baker,  E. F. C. Byrd,  A. K. Chakraborty,  C.-L. Cheng,  
 H. Dachsel,  R. J. Doerksen,  G. Hawkins,  A. Heyden,  S. Hirata,  
 G. Kedziora,  F. J. Keil,  C. Kelley,  P. P. Korambath,  W. Kurlancheek,  
 A. M. Lee,  M. S. Lee,  D. Liotard,  I. Lotan,  P. E. Maslen,  N. Nair,  
 D. Neuhauser,  R. Olson,  B. Peters,  J. Ritchie,  N. E. Schultz,  
 N. Shenvi,  A. C. Simmonett,  K. S. Thanthiriwatte,  Q. Wu,  W. Zhang

 Please cite Q-Chem as follows:
 Y. Shao et al., Mol. Phys. 113, 184-215 (2015)
 DOI: 10.1080/00268976.2014.952696

 Q-Chem 4.4.1 for Intel X86 Linux

 Parts of Q-Chem use Armadillo 5.200.1 (Boston Tea Smuggler).
 http://arma.sourceforge.net/

 Q-Chem begins on Fri Jan 10 19:42:36 2020  

Host: 
0

     Scratch files written to /tmp/5625972.quick/ZrO.save//
 Jul2716 11668_ 21447  21445 5558   
 Parallel job on  1  processors
Processing $rem in /usr/usc/qchem/4.4/config/preferences.
 MEM_TOTAL  2000 

Checking the input file for inconsistencies... 	...done.

--------------------------------------------------------------
User input:
--------------------------------------------------------------
SINGLE POINT DFT CALCULATION WITH BASIS SET PROJECTION
--------------------------------------------------------
$end

$molecule
0  1
Zr   -0.0000   -0.0458   -0.0017
S    -2.1304    1.1842    0.0016
S     2.1304    1.1842    0.0016
S    -0.0000   -2.2493    0.0017
H    -3.0477    0.2005   -0.0010
H     3.0477    0.2005   -0.0010
$end

$rem
JOBTYPE   opt
EXCHANGE   b3lyp
BASIS   gen
ECP   gen
PDB_PRINT 2
SCF_CONVERGENCE 8
THRESH 14
INCDFT FALSE
SYMMETRY FALSE
SYM_IGNORE TRUE
UNRESTRICTED TRUE
MAX_SCF_CYCLES   600
SCF_ALGORITHM GDM
XC_GRID 000128000302
GEOM_OPT_MAX_CYCLES 200
DFT_D           EMPIRICAL_GRIMME3
DFT_D3_S6       1000
DFT_D3_RS6      1261
DFT_D3_S8       1703
DFT_D3_3BODY    FALSE
SCF_PRINT 1
$end

$basis
O
6-31+G**
****
S
6-31+G**
****
Zr
lanl2dz
****
H
6-31+G**
****
$end

$ecp
Zr
lanl2dz
****
$end

--------------------------------------------------------------
 ----------------------------------------------------------------
             Standard Nuclear Orientation (Angstroms)
    I     Atom           X                Y                Z
 ----------------------------------------------------------------
    1      Zr      0.0000000000    -0.0458000000    -0.0017000000
    2      S      -2.1304000000     1.1842000000     0.0016000000
    3      S       2.1304000000     1.1842000000     0.0016000000
    4      S       0.0000000000    -2.2493000000     0.0017000000
    5      H      -3.0477000000     0.2005000000    -0.0010000000
    6      H       3.0477000000     0.2005000000    -0.0010000000
 ----------------------------------------------------------------
 Nuclear Repulsion Energy =   251.9287279587 hartrees
 There are       31 alpha and       31 beta electrons

 Q-Chem warning in module /home/scratch/svnadmin/11668_zgan/qchem/forms1/BasisType.C, line 1419:

 Setting pure/cartesian flag to 2111 for general basis


 Requested basis set is non-standard
 There are 32 shells and 98 basis functions

 Total QAlloc Memory Limit   2000 MB
 Mega-Array Size        61 MB
 MEM_STATIC part        62 MB
 A cutoff of  1.0D-14 yielded    488 shell pairs
 There are      4755 function pairs (      5271 Cartesian)
 
 -------------------------------------------------------
 OpenMP Integral Computing Module                       
 Release: version 1.0, May 2013, Q-Chem Inc. Pittsburgh 
 -------------------------------------------------------
 Integral Job Info:
 Integral job number is                      11
 Integral operator is                         1
 short-range coefficients                     0
 long-range coefficients              100000000
 Omega coefficients                           0
 if combine SR and LR in K                    0
 Integral screening is                        0
 Integral computing path is                   2
 max size of driver memory is            800000
 size of driver memory is                593474
 size of scratch memory is             15166112
 max col of scratch BK array               1296
 max len of scratch array in speh3          155
 max len of scratch index in speh4           18
 max int batch size is                      520
 min int batch size is                       52
 fixed nKL is                                52
 max L of basis functions is                  2
 order of int derivative is                   0
 number of shells is                         32
 number of basis is                         103
 number of cartesian basis is               103
 number of contracted shell pairs           488
 number of primitive shell pairs           2478
 maxK2 (contraction) of shell pair           36
 max number of K2 of shell pair               1
 max number of CS2 of shell pair             33
 max number of PS2 of shell pair            198
 mem total for path MDJ                   17634
 -------------------------------------------------------
 Requested basis set is non-standard
 Compound shells will be simplified
 There are 44 shells and 98 basis functions
 A cutoff of  1.0D-14 yielded    929 shell pairs
 There are      4719 function pairs (      5235 Cartesian)
 Smallest overlap matrix eigenvalue = 1.23E-03

 Scale SEOQF with 1.000000e-01/1.000000e-01/1.000000e-01

 Standard Electronic Orientation quadrupole field applied
 Nucleus-field energy     =     0.0000000148 hartrees
 Guess MOs from core Hamiltonian diagonalization
 An unrestricted hybrid HF-DFT SCF calculation will be
 performed using Geometric Direct Minimization
 Exchange:     0.2000 Hartree-Fock + 0.0800 Slater + 0.7200 B88
 Correlation:  0.1900 VWN1RPA + 0.8100 LYP
 Using Euler-Maclaurin-Lebedev (128,302) quadrature formula
 Dispersion:   Grimme D3
 SCF converges when RMS gradient is below 1.0E-08
 Maximum number of minimization steps = 600
 using 16 threads for integral computing 
 -------------------------------------------------------
 OpenMP BLAS3 based DFT computing Module                
 Release: version 1.0, May 2013, Q-Chem Inc. Pittsburgh 
 -------------------------------------------------------
 
   ------------------- Entering Geometric Direct Minimization ------------------
   GDM:         diagonal hessian shift is      0.000000000000000E+000
   GDM::PreWSS: input subspace size is                  1
   GDM::PreWSS: working subspace size set to            1
   GDM::PrEWSS: # of linearly dependent vectors =            0
   GDM::PrEWSS: Max dev from orthonormality =   0.000000000000000E+000
   GDM::BFGS:   lowest Hinv e-value     1.00000000000000     
   GDM::BFGS:   highest Hinv e-value    1.00000000000000     
   GDM::      : max scaling in EWCs is          2.82842712474619     
   GDM::      : max rotation in step is       -0.193265101177821     
   GDM::        grad.step =   -2.67217856330591     
   ------- Leaving GDM -- hopefully with a step in the right direction! --------
 
 ---------------------------------------
  Cycle       Energy        RMS Gradient
 ---------------------------------------
    1   -1226.8973080790      1.68E+00  Gap = -0.08 eV  Descent step
 
   ------------------- Entering Geometric Direct Minimization ------------------
   GDM::trust : actual energy change is        -2.53659318731661     
   GDM::trust : predicted energy change was   -0.163350000000000     
   GDM::trust : updated trust radius is        0.330000000000000     
   GDM:         diagonal hessian shift is      0.000000000000000E+000
   GDM::PreWSS: input subspace size is                  2
   GDM::PreWSS: working subspace size set to            2
   GDM::PrEWSS: # of linearly dependent vectors =            0
   GDM::PrEWSS: Max dev from orthonormality =   8.850559174433670E-015
   GDM::BFGS:   lowest Hinv e-value    0.438171752866800     
   GDM::BFGS:   highest Hinv e-value    2.13495003910659     
   GDM::      : max scaling in EWCs is          2.82842712474619     
   GDM::      : max rotation in step is       -0.144691725380750     
   GDM::        grad.step =   -2.21667443690053     
   ------- Leaving GDM -- hopefully with a step in the right direction! --------
 
    2   -1229.4339012663      1.04E+00  Gap = 92.60 eV  Descent step
 
   ------------------- Entering Geometric Direct Minimization ------------------
   GDM::trust : actual energy change is        -2.16003656417979     
   GDM::trust : predicted energy change was   -0.154903094456282     
   GDM::trust : updated trust radius is        0.330000000000000     
   GDM:         diagonal hessian shift is      0.000000000000000E+000
   GDM::PreWSS: input subspace size is                  3
   GDM::PreWSS: working subspace size set to            3
   GDM::PrEWSS: # of linearly dependent vectors =            0
   GDM::PrEWSS: Max dev from orthonormality =   2.535298360140104E-013
   GDM::BFGS:   lowest Hinv e-value    0.337376957778598     
   GDM::BFGS:   highest Hinv e-value    2.84814159543129     
   GDM::      : max scaling in EWCs is          2.82842712474619     
   GDM::      : max rotation in step is        0.113741813664535     
   GDM::        grad.step =   -2.04292450948491     
   ------- Leaving GDM -- hopefully with a step in the right direction! --------
 
    3   -1231.5939378305      1.02E+00  Gap = 92.60 eV  Descent step
 
   ------------------- Entering Geometric Direct Minimization ------------------
   GDM::trust : actual energy change is        -2.00034849934059     
   GDM::trust : predicted energy change was   -0.143144047029458     
   GDM::trust : updated trust radius is        0.330000000000000     
   GDM:         diagonal hessian shift is      0.000000000000000E+000
   GDM::PreWSS: input subspace size is                  4
   GDM::PreWSS: working subspace size set to            4
   GDM::PrEWSS: # of linearly dependent vectors =            0
   GDM::PrEWSS: Max dev from orthonormality =   1.102375135619837E-012
   GDM::BFGS:   lowest Hinv e-value    0.237784168628716     
   GDM::BFGS:   highest Hinv e-value    3.24535685576820     
   GDM::      : max scaling in EWCs is          2.82842712474619     
   GDM::      : max rotation in step is       -0.230812725830089     
   GDM::        grad.step =   -2.56012840322315     
   ------- Leaving GDM -- hopefully with a step in the right direction! --------
 
    4   -1233.5942863298      1.94E+00  Gap = 92.60 eV  Descent step
 
   ------------------- Entering Geometric Direct Minimization ------------------
   GDM::trust : actual energy change is        -2.44845300801899     
   GDM::trust : predicted energy change was   -0.152888772972804     
   GDM::trust : updated trust radius is        0.330000000000000     
   GDM:         diagonal hessian shift is      0.000000000000000E+000
   GDM::PreWSS: input subspace size is                  5
   GDM::PreWSS: working subspace size set to            5
   GDM::PrEWSS: # of linearly dependent vectors =            0
   GDM::PrEWSS: Max dev from orthonormality =   1.720535172666793E-012
   GDM::BFGS:   lowest Hinv e-value    0.256689589828283     
   GDM::BFGS:   highest Hinv e-value    4.27992866684182     
   GDM::      : max scaling in EWCs is          2.82842712474619     
   GDM::      : max rotation in step is        0.267896604407125     
   GDM::        grad.step =   -2.24169677251826     
   ------- Leaving GDM -- hopefully with a step in the right direction! --------
 
    5   -1236.0427393379      1.95E+00  Gap = 92.60 eV  Descent step
 
   ------------------- Entering Geometric Direct Minimization ------------------
   GDM::trust : actual energy change is        -2.04381772820921     
   GDM::trust : predicted energy change was   -0.165402879347221     
   GDM::trust : updated trust radius is        0.330000000000000     
   GDM:         diagonal hessian shift is      0.000000000000000E+000
   GDM::PreWSS: input subspace size is                  6
   GDM::PreWSS: working subspace size set to            6
   GDM::PrEWSS: # of linearly dependent vectors =            0
   GDM::PrEWSS: Max dev from orthonormality =   1.026734253173345E-012
   GDM::BFGS:   lowest Hinv e-value    0.296531212043352     
   GDM::BFGS:   highest Hinv e-value    5.35654245797888     
   GDM::      : max scaling in EWCs is          2.82842712474619     
   GDM::      : max rotation in step is       -0.102830305743557     
   GDM::        grad.step =   -1.34498244849192     
   ------- Leaving GDM -- hopefully with a step in the right direction! --------
 
    6   -1238.0865570661      6.40E-01  Gap = 92.60 eV  Descent step
 
   ------------------- Entering Geometric Direct Minimization ------------------
   GDM::trust : actual energy change is        -1.27503256749105     
   GDM::trust : predicted energy change was   -0.159739039988824     
   GDM::trust : updated trust radius is        0.330000000000000     
   GDM:         diagonal hessian shift is      0.000000000000000E+000
   GDM::PreWSS: input subspace size is                  7
   GDM::PreWSS: working subspace size set to            7
   GDM::PrEWSS: # of linearly dependent vectors =            0
   GDM::PrEWSS: Max dev from orthonormality =   1.034890922957388E-012
   GDM::BFGS:   lowest Hinv e-value    0.270558388919122     
   GDM::BFGS:   highest Hinv e-value    6.13770704958636     
   GDM::      : max scaling in EWCs is          2.82842712474619     
   GDM::      : max rotation in step is       -0.158997507408105     
   GDM::        grad.step =   -1.24704283560398     
   ------- Leaving GDM -- hopefully with a step in the right direction! --------
 
    7   -1239.3615896336      6.60E-01  Gap = 92.60 eV  Descent step
 
   ------------------- Entering Geometric Direct Minimization ------------------
   GDM::trust : actual energy change is        -1.16976055521559     
   GDM::trust : predicted energy change was   -0.144961185106769     
   GDM::trust : updated trust radius is        0.330000000000000     
   GDM:         diagonal hessian shift is      0.000000000000000E+000
   GDM::PreWSS: input subspace size is                  8
   GDM::PreWSS: working subspace size set to            8
   GDM::PrEWSS: # of linearly dependent vectors =            0
   GDM::PrEWSS: Max dev from orthonormality =   2.484493513699171E-012
   GDM::BFGS:   lowest Hinv e-value    0.241750337217987     
   GDM::BFGS:   highest Hinv e-value    6.75881488197746     
   GDM::      : max scaling in EWCs is          2.82842712474619     
   GDM::      : max rotation in step is       -0.151549605644290     
   GDM::        grad.step =  -0.916006369284347     
   ------- Leaving GDM -- hopefully with a step in the right direction! --------
 
    8   -1240.5313501888      4.51E-01  Gap = 92.60 eV  Descent step
 
   ------------------- Entering Geometric Direct Minimization ------------------
   GDM::trust : actual energy change is       -0.819281752498000     
   GDM::trust : predicted energy change was   -0.163894867727502     
   GDM::trust : updated trust radius is        0.330000000000000     
   GDM:         diagonal hessian shift is      0.000000000000000E+000
   GDM::PreWSS: input subspace size is                  9
   GDM::PreWSS: working subspace size set to            9
   GDM::PrEWSS: # of linearly dependent vectors =            0
   GDM::PrEWSS: Max dev from orthonormality =   4.408754611384680E-012
   GDM::BFGS:   lowest Hinv e-value    0.264843476715959     
   GDM::BFGS:   highest Hinv e-value    7.14702098958885     
   GDM::      : max scaling in EWCs is          2.82842712474619     
   GDM::      : max rotation in step is        0.196714207655060     
   GDM::        grad.step =  -0.677790012540670     
   ------- Leaving GDM -- hopefully with a step in the right direction! --------
 
    9   -1241.3506319413      4.33E-01  Gap = 92.60 eV  Descent step
 
   ------------------- Entering Geometric Direct Minimization ------------------
   GDM::trust : actual energy change is       -0.545758490197386     
   GDM::trust : predicted energy change was   -0.181287048106767     
   GDM::trust : updated trust radius is        0.330000000000000     
   GDM:         diagonal hessian shift is      0.000000000000000E+000
   GDM::PreWSS: input subspace size is                 10
   GDM::PreWSS: working subspace size set to           10
   GDM::PrEWSS: # of linearly dependent vectors =            0
   GDM::PrEWSS: Max dev from orthonormality =   1.174951737466234E-012
   GDM::BFGS:   lowest Hinv e-value    0.268281002608632     
   GDM::BFGS:   highest Hinv e-value    7.24455347875198     
   GDM::      : max scaling in EWCs is          2.67782635771019     
   GDM::      : max rotation in step is        5.845363211623324E-002
   GDM::        grad.step =  -0.400769536195905     
   ------- Leaving GDM -- hopefully with a step in the right direction! --------
 
   10   -1241.8963904315      1.38E-01  Gap = 92.60 eV  Descent step
 
   ------------------- Entering Geometric Direct Minimization ------------------
   GDM::trust : actual energy change is       -0.323436389385961     
   GDM::trust : predicted energy change was   -0.192527227727409     
   GDM::trust : updated trust radius is        0.330000000000000     
   GDM:         diagonal hessian shift is      0.000000000000000E+000
   GDM::PreWSS: input subspace size is                 11
   GDM::PreWSS: working subspace size set to           11
   GDM::PrEWSS: # of linearly dependent vectors =            0
   GDM::PrEWSS: Max dev from orthonormality =   2.154884506510441E-012
   GDM::BFGS:   lowest Hinv e-value    0.323045998797867     
   GDM::BFGS:   highest Hinv e-value    7.46870635848771     
   GDM::      : max scaling in EWCs is          2.27000300900830     
   GDM::      : max rotation in step is        4.980172061613074E-002
   GDM::        grad.step =  -0.247687421712667     
   ------- Leaving GDM -- hopefully with a step in the right direction! --------
 
   11   -1242.2198268209      9.44E-02  Gap = 92.60 eV  Descent step
 
   ------------------- Entering Geometric Direct Minimization ------------------
   GDM::trust : actual energy change is       -0.182630401900269     
   GDM::trust : predicted energy change was   -0.172572665004206     
   GDM::trust : updated trust radius is        0.330000000000000     
   GDM:         diagonal hessian shift is      0.000000000000000E+000
   GDM::PreWSS: input subspace size is                 12
   GDM::PreWSS: working subspace size set to           12
   GDM::PrEWSS: # of linearly dependent vectors =            0
   GDM::PrEWSS: Max dev from orthonormality =   3.770815365684854E-012
   GDM::BFGS:   lowest Hinv e-value    0.328902885490502     
   GDM::BFGS:   highest Hinv e-value    7.59589864985942     
   GDM::      : max scaling in EWCs is          2.04961774242010     
   GDM::      : max rotation in step is        5.207909549365460E-002
   GDM::        grad.step =  -0.123869588635449     
   ------- Leaving GDM -- hopefully with a step in the right direction! --------
 
   12   -1242.4024572228      5.48E-02  Gap = 92.60 eV  Descent step
 
   ------------------- Entering Geometric Direct Minimization ------------------
   GDM::trust : actual energy change is       -6.952143661715127E-002
   GDM::trust : predicted energy change was   -0.163993431436124     
   GDM::trust : updated trust radius is        0.330000000000000     
   GDM:         diagonal hessian shift is      0.000000000000000E+000
   GDM::PreWSS: input subspace size is                 13
   GDM::PreWSS: working subspace size set to           13
   GDM::PrEWSS: # of linearly dependent vectors =            0
   GDM::PrEWSS: Max dev from orthonormality =   3.780576633000132E-011
   GDM::BFGS:   lowest Hinv e-value    0.335040421887052     
   GDM::BFGS:   highest Hinv e-value    7.62909522121327     
   GDM::      : max scaling in EWCs is          1.95495597898869     
   GDM::      : max rotation in step is        1.486284734021981E-002
   GDM::        grad.step =  -5.084908884678432E-003
   ------- Leaving GDM -- hopefully with a step in the right direction! --------
 
   13   -1242.4719786594      9.45E-03  Gap = 92.60 eV  Normal BFGS step
 
   ------------------- Entering Geometric Direct Minimization ------------------
   GDM::trust : actual energy change is       -1.815811054029837E-003
   GDM::trust : predicted energy change was   -7.627363327017648E-003
   GDM::trust : updated trust radius is        0.330000000000000     
   GDM:         diagonal hessian shift is      0.000000000000000E+000
   GDM::PreWSS: input subspace size is                 14
   GDM::PreWSS: working subspace size set to           14
   GDM::PrEWSS: # of linearly dependent vectors =            0
   GDM::PrEWSS: Max dev from orthonormality =   1.000036286419315E-010
   GDM::BFGS:   lowest Hinv e-value    0.337543246132785     
   GDM::BFGS:   highest Hinv e-value    6.88015094120270     
   GDM::      : max scaling in EWCs is          1.96406281298595     
   GDM::      : max rotation in step is        2.121627244227672E-002
   GDM::        grad.step =  -3.914021502373631E-003
   ------- Leaving GDM -- hopefully with a step in the right direction! --------
 
   14   -1242.4737944704      1.03E-02  Gap = 92.60 eV  Normal BFGS step
 
   ------------------- Entering Geometric Direct Minimization ------------------
   GDM::trust : actual energy change is        5.580431295584276E-003
   GDM::trust : predicted energy change was   -5.871032253560447E-003
   GDM::trust : updated trust radius is        0.108900000000000     
   GDM::search:  On step            1 .  The current bracket is:
       left   : x =  0.0000E+00, e =     -1242.4737944704, g = -0.3888E-01
       current: x =  0.1007E+00, e =     -1242.4682140391, g =  0.1495E+00
       right  : x =  0.1000E+04, e =      1000.0000000000, g =  0.1000E+04
       next   : x =  0.2075E-01
   GDM::      : max rotation in step is        4.373129674052877E-003
   ------- Leaving GDM -- hopefully with a step in the right direction! --------
 
   15   -1242.4682140391      2.93E-02  Gap = 92.60 eV  Line search: overstep
 
   ------------------- Entering Geometric Direct Minimization ------------------
   GDM::trust : actual energy change is       -4.026360588795797E-004
   GDM::trust : predicted energy change was   -5.871032253560447E-003
   GDM::trust : updated trust radius is        0.108900000000000     
   GDM:         diagonal hessian shift is      0.000000000000000E+000
   GDM::PreWSS: input subspace size is                 15
   GDM::PreWSS: working subspace size set to           15
   GDM::PrEWSS: # of linearly dependent vectors =            1
   GDM::PrEWSS: Max dev from orthonormality =   3.216672327804870E-011
   GDM::BFGS:   lowest Hinv e-value    0.346914826931708     
   GDM::BFGS:   highest Hinv e-value    5.30118016128932     
   GDM::      : max scaling in EWCs is          1.95827288420918     
   GDM::      : max rotation in step is        1.105349966358750E-002
   GDM::        grad.step =  -8.371102067729353E-004
   ------- Leaving GDM -- hopefully with a step in the right direction! --------
 
   16   -1242.4741971065      8.59E-03  Gap = 92.60 eV  Normal BFGS step
 
   ------------------- Entering Geometric Direct Minimization ------------------
   GDM::trust : actual energy change is        1.623488697077846E-004
   GDM::trust : predicted energy change was   -1.255665310159403E-003
   GDM::trust : updated trust radius is        0.108900000000000     
   GDM::search:  On step            1 .  The current bracket is:
       left   : x =  0.0000E+00, e =     -1242.4741971065, g = -0.2346E-01
       current: x =  0.3568E-01, e =     -1242.4740347576, g =  0.3243E-01
       right  : x =  0.1000E+04, e =      1000.0000000000, g =  0.1000E+04
       next   : x =  0.1494E-01
   GDM::      : max rotation in step is        4.629002630868995E-003
   ------- Leaving GDM -- hopefully with a step in the right direction! --------
 
   17   -1242.4740347576      4.79E-03  Gap = 92.60 eV  Line search: overstep
 
   ------------------- Entering Geometric Direct Minimization ------------------
   GDM::trust : actual energy change is       -1.748040674556250E-004
   GDM::trust : predicted energy change was   -1.255665310159403E-003
   GDM::trust : updated trust radius is        0.108900000000000     
   GDM:         diagonal hessian shift is      0.000000000000000E+000
   GDM::PreWSS: input subspace size is                 16
   GDM::PreWSS: working subspace size set to           16
   GDM::PrEWSS: # of linearly dependent vectors =            1
   GDM::PrEWSS: Max dev from orthonormality =   2.232405241567315E-010
   GDM::BFGS:   lowest Hinv e-value    0.340936814013329     
   GDM::BFGS:   highest Hinv e-value    4.17763727700063     
   GDM::      : max scaling in EWCs is          1.95843378160277     
   GDM::      : max rotation in step is        3.589981574858290E-003
   GDM::        grad.step =  -2.854419126469041E-004
   ------- Leaving GDM -- hopefully with a step in the right direction! --------
 
   18   -1242.4743719106      2.04E-03  Gap = 92.60 eV  Normal BFGS step
 
   ------------------- Entering Geometric Direct Minimization ------------------
   GDM::trust : actual energy change is        1.031677425089583E-004
   GDM::trust : predicted energy change was   -4.281628689703561E-004
   GDM::trust : updated trust radius is        0.108900000000000     
   GDM::search:  On step            1 .  The current bracket is:
       left   : x =  0.0000E+00, e =     -1242.4743719106, g = -0.1464E-01
       current: x =  0.1950E-01, e =     -1242.4742687428, g =  0.2522E-01
       right  : x =  0.1000E+04, e =      1000.0000000000, g =  0.1000E+04
       next   : x =  0.7160E-02
   GDM::      : max rotation in step is        1.318458244023426E-003
   ------- Leaving GDM -- hopefully with a step in the right direction! --------
 
   19   -1242.4742687428      4.72E-03  Gap = 92.60 eV  Line search: overstep
 
   ------------------- Entering Geometric Direct Minimization ------------------
   GDM::trust : actual energy change is       -5.240782411419787E-005
   GDM::trust : predicted energy change was   -4.281628689703561E-004
   GDM::trust : updated trust radius is        0.108900000000000     
   GDM:         diagonal hessian shift is      0.000000000000000E+000
   GDM::PreWSS: input subspace size is                 17
   GDM::PreWSS: working subspace size set to           17
   GDM::PrEWSS: # of linearly dependent vectors =            2
   GDM::PrEWSS: Max dev from orthonormality =   1.528303560094368E-010
   GDM::BFGS:   lowest Hinv e-value    0.309141995524342     
   GDM::BFGS:   highest Hinv e-value    3.32614879869579     
   GDM::      : max scaling in EWCs is          1.96505771844179     
   GDM::      : max rotation in step is       -3.275745836907926E-003
   GDM::        grad.step =  -9.440537371743634E-005
   ------- Leaving GDM -- hopefully with a step in the right direction! --------
 
   20   -1242.4744243184      2.45E-03  Gap = 92.60 eV  Normal BFGS step
 
   ------------------- Entering Geometric Direct Minimization ------------------
   GDM::trust : actual energy change is        4.796905386683648E-006
   GDM::trust : predicted energy change was   -1.416080605761545E-004
   GDM::trust : updated trust radius is        0.108900000000000     
   GDM::search:  On step            1 .  The current bracket is:
       left   : x =  0.0000E+00, e =     -1242.4744243184, g = -0.8425E-02
       current: x =  0.1121E-01, e =     -1242.4744195215, g =  0.9287E-02
       right  : x =  0.1000E+04, e =      1000.0000000000, g =  0.1000E+04
       next   : x =  0.5332E-02
   GDM::      : max rotation in step is       -1.558673917219436E-003
   ------- Leaving GDM -- hopefully with a step in the right direction! --------
 
   21   -1242.4744195215      1.66E-03  Gap = 92.60 eV  Line search: overstep
 
   ------------------- Entering Geometric Direct Minimization ------------------
   GDM::trust : actual energy change is       -2.246757776447339E-005
   GDM::trust : predicted energy change was   -1.416080605761545E-004
   GDM::trust : updated trust radius is        0.108900000000000     
   GDM:         diagonal hessian shift is      0.000000000000000E+000
   GDM::PreWSS: input subspace size is                 18
   GDM::PreWSS: working subspace size set to           18
   GDM::PrEWSS: # of linearly dependent vectors =            3
   GDM::PrEWSS: Max dev from orthonormality =   9.157171201867875E-011
   GDM::BFGS:   lowest Hinv e-value    0.295660691777940     
   GDM::BFGS:   highest Hinv e-value    3.01229792128054     
   GDM::      : max scaling in EWCs is          1.96331144545598     
   GDM::      : max rotation in step is        1.045421197176978E-003
   GDM::        grad.step =  -1.358716542479862E-005
   ------- Leaving GDM -- hopefully with a step in the right direction! --------
 
   22   -1242.4744467860      6.62E-04  Gap = 92.60 eV  Normal BFGS step
 
   ------------------- Entering Geometric Direct Minimization ------------------
   GDM::trust : actual energy change is       -1.924583784784772E-006
   GDM::trust : predicted energy change was   -2.038074813719793E-005
   GDM::trust : updated trust radius is        0.330000000000000     
   GDM:         diagonal hessian shift is      0.000000000000000E+000
   GDM::PreWSS: input subspace size is                 19
   GDM::PreWSS: working subspace size set to           18
   GDM::PrEWSS: # of linearly dependent vectors =            3
   GDM::PrEWSS: Max dev from orthonormality =   5.103842533066977E-011
   GDM::BFGS:   lowest Hinv e-value    0.295894586034366     
   GDM::BFGS:   highest Hinv e-value    2.59963533295410     
   GDM::      : max scaling in EWCs is          1.95983587409635     
   GDM::      : max rotation in step is        3.833610431304915E-004
   GDM::        grad.step =  -8.485353472264595E-006
   ------- Leaving GDM -- hopefully with a step in the right direction! --------
 
   23   -1242.4744487105      6.93E-04  Gap = 92.60 eV  Normal BFGS step
 
   ------------------- Entering Geometric Direct Minimization ------------------
   GDM::trust : actual energy change is       -3.464492920102202E-006
   GDM::trust : predicted energy change was   -1.272803020839690E-005
   GDM::trust : updated trust radius is        0.330000000000000     
   GDM:         diagonal hessian shift is      0.000000000000000E+000
   GDM::PreWSS: input subspace size is                 19
   GDM::PreWSS: working subspace size set to           18
   GDM::PrEWSS: # of linearly dependent vectors =            2
   GDM::PrEWSS: Max dev from orthonormality =   1.133019017149350E-010
   GDM::BFGS:   lowest Hinv e-value    0.273060293085152     
   GDM::BFGS:   highest Hinv e-value    2.52468360036842     
   GDM::      : max scaling in EWCs is          1.96463556233183     
   GDM::      : max rotation in step is       -4.205846998042988E-004
   GDM::        grad.step =  -1.630665478431802E-006
   ------- Leaving GDM -- hopefully with a step in the right direction! --------
 
   24   -1242.4744521750      3.93E-04  Gap = 92.60 eV  Normal BFGS step
 
   ------------------- Entering Geometric Direct Minimization ------------------
   GDM::trust : actual energy change is        1.422652076144004E-007
   GDM::trust : predicted energy change was   -2.445998217647702E-006
   GDM::trust : updated trust radius is        0.108900000000000     
   GDM::search:  On step            1 .  The current bracket is:
       left   : x =  0.0000E+00, e =     -1242.4744521750, g = -0.1038E-02
       current: x =  0.1570E-02, e =     -1242.4744520328, g =  0.1220E-02
       right  : x =  0.1000E+04, e =      1000.0000000000, g =  0.1000E+04
       next   : x =  0.7222E-03
   GDM::      : max rotation in step is       -1.934178691037671E-004
   ------- Leaving GDM -- hopefully with a step in the right direction! --------
 
   25   -1242.4744520328      8.67E-05  Gap = 92.60 eV  Line search: overstep
 
   ------------------- Entering Geometric Direct Minimization ------------------
   GDM::trust : actual energy change is       -3.749628376681358E-007
   GDM::trust : predicted energy change was   -2.445998217647702E-006
   GDM::trust : updated trust radius is        0.108900000000000     
   GDM:         diagonal hessian shift is      0.000000000000000E+000
   GDM::PreWSS: input subspace size is                 19
   GDM::PreWSS: working subspace size set to           18
   GDM::PrEWSS: # of linearly dependent vectors =            1
   GDM::PrEWSS: Max dev from orthonormality =   2.441133985491700E-010
   GDM::BFGS:   lowest Hinv e-value    0.252864765823170     
   GDM::BFGS:   highest Hinv e-value    2.12985824037418     
   GDM::      : max scaling in EWCs is          1.96333464808102     
   GDM::      : max rotation in step is        9.933206445688445E-005
   GDM::        grad.step =  -1.739033104548295E-007
   ------- Leaving GDM -- hopefully with a step in the right direction! --------
 
   26   -1242.4744525500      6.10E-05  Gap = 92.60 eV  Normal BFGS step
 
   ------------------- Entering Geometric Direct Minimization ------------------
   GDM::trust : actual energy change is       -4.181879376119468E-008
   GDM::trust : predicted energy change was   -2.608549656822441E-007
   GDM::trust : updated trust radius is        0.330000000000000     
   GDM:         diagonal hessian shift is      0.000000000000000E+000
   GDM::PreWSS: input subspace size is                 19
   GDM::PreWSS: working subspace size set to           18
   GDM::PrEWSS: # of linearly dependent vectors =            1
   GDM::PrEWSS: Max dev from orthonormality =   4.614847566586366E-011
   GDM::BFGS:   lowest Hinv e-value    0.253452237359959     
   GDM::BFGS:   highest Hinv e-value    2.03071184274188     
   GDM::      : max scaling in EWCs is          1.96328185996803     
   GDM::      : max rotation in step is        4.750716557855906E-005
   GDM::        grad.step =  -4.503872415690576E-008
   ------- Leaving GDM -- hopefully with a step in the right direction! --------
 
   27   -1242.4744525918      5.79E-05  Gap = 92.60 eV  Normal BFGS step
 
   ------------------- Entering Geometric Direct Minimization ------------------
   GDM::trust : actual energy change is       -1.858006726251915E-008
   GDM::trust : predicted energy change was   -6.755808623535865E-008
   GDM::trust : updated trust radius is        0.330000000000000     
   GDM:         diagonal hessian shift is      0.000000000000000E+000
   GDM::PreWSS: input subspace size is                 19
   GDM::PreWSS: working subspace size set to           18
   GDM::PrEWSS: # of linearly dependent vectors =            0
   GDM::PrEWSS: Max dev from orthonormality =   1.130957046763248E-010
   GDM::BFGS:   lowest Hinv e-value    0.240173214912083     
   GDM::BFGS:   highest Hinv e-value    2.14739694677683     
   GDM::      : max scaling in EWCs is          1.96302489354088     
   GDM::      : max rotation in step is       -2.722405797245405E-005
   GDM::        grad.step =  -5.610833899013081E-009
   ------- Leaving GDM -- hopefully with a step in the right direction! --------
 
   28   -1242.4744526104      3.08E-05  Gap = 92.60 eV  Normal BFGS step
 
   ------------------- Entering Geometric Direct Minimization ------------------
   GDM::trust : actual energy change is       -7.287326297955588E-010
   GDM::trust : predicted energy change was   -8.416250848519625E-009
   GDM::trust : updated trust radius is        0.330000000000000     
   GDM:         diagonal hessian shift is      0.000000000000000E+000
   GDM::PreWSS: input subspace size is                 19
   GDM::PreWSS: working subspace size set to           18
   GDM::PrEWSS: # of linearly dependent vectors =            0
   GDM::PrEWSS: Max dev from orthonormality =   5.609583457466538E-011
   GDM::BFGS:   lowest Hinv e-value    0.227660799332232     
   GDM::BFGS:   highest Hinv e-value    1.87653349724801     
   GDM::      : max scaling in EWCs is          1.96319407930291     
   GDM::      : max rotation in step is        1.507138999927132E-005
   GDM::        grad.step =  -2.300207266330364E-009
   ------- Leaving GDM -- hopefully with a step in the right direction! --------
 
   29   -1242.4744526111      1.70E-05  Gap = 92.60 eV  Normal BFGS step
 
   ------------------- Entering Geometric Direct Minimization ------------------
   GDM::trust : actual energy change is       -1.024773155222647E-009
   GDM::trust : predicted energy change was   -3.450310899495545E-009
   GDM::trust : updated trust radius is        0.330000000000000     
   GDM:         diagonal hessian shift is      0.000000000000000E+000
   GDM::PreWSS: input subspace size is                 19
   GDM::PreWSS: working subspace size set to           15
   GDM::PrEWSS: # of linearly dependent vectors =            0
   GDM::PrEWSS: Max dev from orthonormality =   9.386194946281456E-012
   GDM::BFGS:   lowest Hinv e-value    0.225098154503692     
   GDM::BFGS:   highest Hinv e-value    1.48667033269424     
   GDM::      : max scaling in EWCs is          1.96313166541636     
   GDM::      : max rotation in step is       -2.009304019425199E-006
   GDM::        grad.step =  -1.292993801038357E-010
   ------- Leaving GDM -- hopefully with a step in the right direction! --------
 
   30   -1242.4744526122      1.98E-06  Gap = 92.60 eV  Normal BFGS step
 
   ------------------- Entering Geometric Direct Minimization ------------------
   GDM::trust : actual energy change is       -4.365574568510056E-011
   GDM::trust : predicted energy change was   -1.939490701557535E-010
   GDM::trust : updated trust radius is        0.330000000000000     
   GDM:         diagonal hessian shift is      0.000000000000000E+000
   GDM::PreWSS: input subspace size is                 16
   GDM::PreWSS: working subspace size set to           15
   GDM::PrEWSS: # of linearly dependent vectors =            1
   GDM::PrEWSS: Max dev from orthonormality =   8.103150962723848E-012
   GDM::BFGS:   lowest Hinv e-value    0.225028481033842     
   GDM::BFGS:   highest Hinv e-value    1.35750387701574     
   GDM::      : max scaling in EWCs is          1.96313271469641     
   GDM::      : max rotation in step is        1.016486975192291E-006
   GDM::        grad.step =  -1.914631387170537E-011
   ------- Leaving GDM -- hopefully with a step in the right direction! --------
 
   31   -1242.4744526122      7.34E-07  Gap = 92.60 eV  Normal BFGS step
 
   ------------------- Entering Geometric Direct Minimization ------------------
   GDM::trust : actual energy change is       -7.958078640513122E-012
   GDM::trust : predicted energy change was   -2.871947080755807E-011
   GDM::trust : updated trust radius is        0.330000000000000     
   GDM:         diagonal hessian shift is      0.000000000000000E+000
   GDM::PreWSS: input subspace size is                 16
   GDM::PreWSS: working subspace size set to           15
   GDM::PrEWSS: # of linearly dependent vectors =            0
   GDM::PrEWSS: Max dev from orthonormality =   2.267633320701679E-010
   GDM::BFGS:   lowest Hinv e-value    0.224930713859924     
   GDM::BFGS:   highest Hinv e-value    1.35587124083420     
   GDM::      : max scaling in EWCs is          1.96313117996497     
   GDM::      : max rotation in step is       -2.409681215294811E-007
   GDM::        grad.step =  -1.079677883229016E-012
   ------- Leaving GDM -- hopefully with a step in the right direction! --------
 
   32   -1242.4744526122      2.05E-07  Gap = 92.60 eV  Normal BFGS step
 
   ------------------- Entering Geometric Direct Minimization ------------------
   GDM::trust : actual energy change is        1.591615728102624E-012
   GDM::trust : predicted energy change was   -1.619516824843524E-012
   GDM::trust : updated trust radius is        0.108900000000000     
   GDM::WARNING energy changes are now smaller than effective accuracy.
   GDM::        calculation will continue, but THRESH should be increased
   GDM::        or SCF_CONVERGENCE decreased.
   GDM::        effective_thresh =   3.100000000000000E-010
   GDM:         diagonal hessian shift is      0.000000000000000E+000
   GDM::PreWSS: input subspace size is                 16
   GDM::PreWSS: working subspace size set to           13
   GDM::PrEWSS: # of linearly dependent vectors =            0
   GDM::PrEWSS: Max dev from orthonormality =   1.298280881130258E-011
   GDM::BFGS:   lowest Hinv e-value    0.227199301368496     
   GDM::BFGS:   highest Hinv e-value    1.56471982159203     
   GDM::      : max scaling in EWCs is          1.96313152415528     
   GDM::      : max rotation in step is       -2.883871907994208E-008
   GDM::        grad.step =  -4.181855464089571E-014
   ------- Leaving GDM -- hopefully with a step in the right direction! --------
 
   33   -1242.4744526122      3.08E-08  Gap = 92.60 eV  Normal BFGS step
 
   ------------------- Entering Geometric Direct Minimization ------------------
   GDM::trust : actual energy change is       -3.410605131648481E-012
   GDM::trust : predicted energy change was   -6.272783196134358E-014
   GDM::trust : updated trust radius is        0.330000000000000     
   GDM:         diagonal hessian shift is      0.000000000000000E+000
   GDM::PreWSS: input subspace size is                 14
   GDM::PreWSS: working subspace size set to           12
   GDM::PrEWSS: # of linearly dependent vectors =            0
   GDM::PrEWSS: Max dev from orthonormality =   5.261364260933377E-012
   GDM::BFGS:   lowest Hinv e-value    0.234671513490148     
   GDM::BFGS:   highest Hinv e-value    1.47726652626800     
   GDM::      : max scaling in EWCs is          1.96313147487709     
   GDM::      : max rotation in step is        1.267146042023797E-008
   GDM::        grad.step =  -3.219427943705306E-015
   ------- Leaving GDM -- hopefully with a step in the right direction! --------
 
   34   -1242.4744526122      9.12E-09 Convergence criterion met
 ---------------------------------------
 One-Electron    Energy = -2231.7527383328
 Total Coulomb   Energy =   821.0722880752
 Alpha Exchange  Energy =    -8.1087725215
 Beta  Exchange  Energy =    -8.1087725215
 DFT   Exchange  Energy =   -64.4653082194
 DFT Correlation Energy =    -3.0398770657
 Nuclear Repu.   Energy =   251.9287279735
 Nuclear Attr.   Energy = -3448.8014536519
 Kinetic         Energy =  1217.0487153191
 <S^2> = 0.0000
 SCF time:  CPU 251.95 s  wall 25.08 s
 SCF   energy in the final basis set = -1242.4744526122
 Total energy in the final basis set = -1242.4744526122
 
 --------------------------------------------------------------
 
                    Orbital Energies (a.u.)
 --------------------------------------------------------------
 
 Alpha MOs
 -- Occupied --
-88.872 -88.872 -88.840  -7.950  -7.950  -7.920  -5.913  -5.913
 -5.908  -5.908  -5.908  -5.908  -5.880  -5.879  -5.878  -2.091
 -1.295  -1.288  -1.286  -0.733  -0.727  -0.658  -0.430  -0.429
 -0.331  -0.308  -0.302  -0.300  -0.300  -0.281  -0.274
 -- Virtual --
 -0.144  -0.109  -0.092  -0.087  -0.053  -0.018  -0.006  -0.005
  0.017   0.045   0.049   0.058   0.068   0.068   0.069   0.075
  0.091   0.096   0.107   0.110   0.115   0.125   0.134   0.139
  0.200   0.203   0.210   0.212   0.261   0.275   0.328   0.432
  0.482   0.491   0.503   0.514   0.522   0.537   0.560   0.570
  0.587   0.654   0.657   0.723   0.739   0.740   0.752   0.758
  0.779   0.788   0.790   0.821   0.828   0.829   0.855   0.866
  0.882   0.897   1.169   1.182   2.065   2.069   2.085   2.089
  2.734   2.739   4.299
 
 Beta MOs
 -- Occupied --
-88.872 -88.872 -88.840  -7.950  -7.950  -7.920  -5.913  -5.913
 -5.908  -5.908  -5.908  -5.908  -5.880  -5.879  -5.878  -2.091
 -1.295  -1.288  -1.286  -0.733  -0.727  -0.658  -0.430  -0.429
 -0.331  -0.308  -0.302  -0.300  -0.300  -0.281  -0.274
 -- Virtual --
 -0.144  -0.109  -0.092  -0.087  -0.053  -0.018  -0.006  -0.005
  0.017   0.045   0.049   0.058   0.068   0.068   0.069   0.075
  0.091   0.096   0.107   0.110   0.115   0.125   0.134   0.139
  0.200   0.203   0.210   0.212   0.261   0.275   0.328   0.432
  0.482   0.491   0.503   0.514   0.522   0.537   0.560   0.570
  0.587   0.654   0.657   0.723   0.739   0.740   0.752   0.758
  0.779   0.788   0.790   0.821   0.828   0.829   0.855   0.866
  0.882   0.897   1.169   1.182   2.065   2.069   2.085   2.089
  2.734   2.739   4.299
 --------------------------------------------------------------
 
          Ground-State Mulliken Net Atomic Charges

     Atom                 Charge (a.u.)    Spin (a.u.)
  --------------------------------------------------------
      1 Zr                    0.717944       0.000000
      2 S                    -0.303114       0.000000
      3 S                    -0.303114       0.000000
      4 S                    -0.334989       0.000000
      5 H                     0.111637       0.000000
      6 H                     0.111637       0.000000
  --------------------------------------------------------
  Sum of atomic charges =     0.000000
  Sum of spin   charges =     0.000000

 -----------------------------------------------------------------
                    Cartesian Multipole Moments
 -----------------------------------------------------------------
    Charge (ESU x 10^10)
                 0.0000
    Dipole Moment (Debye)
         X       0.0000      Y       0.5290      Z      -0.0232
       Tot       0.5295
    Quadrupole Moments (Debye-Ang)
        XX     -64.6243     XY       0.0000     YY     -77.1403
        XZ       0.0000     YZ       0.0062     ZZ     -62.0738
    Octopole Moments (Debye-Ang^2)
       XXX       0.0000    XXY     -19.3492    XYY       0.0000
       YYY      11.2864    XXZ      -0.0854    XYZ       0.0000
       YYZ      -0.0278    XZZ       0.0000    YZZ      -2.0060
       ZZZ      -0.1472
    Hexadecapole Moments (Debye-Ang^3)
      XXXX    -825.4310   XXXY       0.0000   XXYY    -316.3142
      XYYY       0.0000   YYYY    -792.4555   XXXZ       0.0000
      XXYZ      -0.0258   XYYZ       0.0000   YYYZ       0.0227
      XXZZ    -178.6908   XYZZ       0.0000   YYZZ    -145.8449
      XZZZ       0.0000   YZZZ      -0.0003   ZZZZ     -92.5755
 -----------------------------------------------------------------
 Calculating analytic gradient of the SCF energy
 Gradient of SCF Energy
            1           2           3           4           5           6
    1  -0.0001801  -0.0005008   0.0005067   0.0000023   0.0011558  -0.0009838
    2  -0.0112658   0.0002065   0.0002070   0.0068097   0.0020213   0.0020213
    3   0.0000126   0.0000247   0.0000247   0.0000057  -0.0000338  -0.0000338
 Max gradient component =       1.127E-02
 RMS gradient           =       3.201E-03
 Gradient time:  CPU 22.23 s  wall 2.38 s
 Geometry Optimization Parameters
   NAtoms,    NIC,     NZ,  NCons,   NDum,   NFix, NCnnct, MaxDiis
        6      26       0       0       0       0       0       0


** GEOMETRY OPTIMIZATION IN DELOCALIZED INTERNAL COORDINATES **
   Searching for a Minimum

   Optimization Cycle:   1

                       Coordinates (Angstroms)
     ATOM                X               Y               Z
      1  Zr        0.0000000000   -0.0458000000   -0.0017000000
      2  S        -2.1304000000    1.1842000000    0.0016000000
      3  S         2.1304000000    1.1842000000    0.0016000000
      4  S         0.0000000000   -2.2493000000    0.0017000000
      5  H        -3.0477000000    0.2005000000   -0.0010000000
      6  H         3.0477000000    0.2005000000   -0.0010000000
   Point Group: c1    Number of degrees of freedom:    12


   Energy is  -1242.474452612


 Attempting to Generate Delocalized Internal Coordinates

 12 Hessian modes will be used to form the next step
  Hessian Eigenvalues:
     0.002000    0.002000    0.002001    0.100888    0.100888    0.160000
     0.160000    0.188306    0.249999    0.250000    0.260237    0.260237

 Minimum Search - Taking Simple RFO Step
 Searching for Lamda that Minimizes Along All modes
 Value Taken    Lamda =  -0.00069335
 Step Taken.  Stepsize is  0.067225

                             Maximum     Tolerance    Cnvgd?
         Gradient           0.008475      0.000300      NO
         Displacement       0.037449      0.001200      NO
         Energy change     *********      0.000001      NO


 New Cartesian Coordinates Obtained by Inverse Iteration

 Displacement from previous Coordinates is:  0.124017
 ----------------------------------------------------------------
             Standard Nuclear Orientation (Angstroms)
    I     Atom           X                Y                Z
 ----------------------------------------------------------------
    1      Zr      0.0006441715    -0.0105362128    -0.0133905872
    2      S      -2.1465139611     1.1841296715    -0.0066251270
    3      S       2.1466618333     1.1844858335    -0.0066218774
    4      S       0.0009416010    -2.2330840801    -0.0037417429
    5      H      -3.0425911260     0.1751571217     0.0157904972
    6      H       3.0408574813     0.1741476663     0.0157888373
 ----------------------------------------------------------------
 Nuclear Repulsion Energy =   251.4848303857 hartrees
 There are       31 alpha and       31 beta electrons
 Applying Cartesian multipole field
    Component          Value
    ---------          -----
     (2,0,0)        1.00000E-11
     (0,2,0)        2.00000E-11
     (0,0,2)       -3.00000E-11
 Nucleus-field energy     =     0.0000000148 hartrees
 Requested basis set is non-standard
 There are 32 shells and 98 basis functions
 A cutoff of  1.0D-14 yielded    488 shell pairs
 There are      4755 function pairs (      5271 Cartesian)
 Requested basis set is non-standard
 Compound shells will be simplified
 There are 44 shells and 98 basis functions
 A cutoff of  1.0D-14 yielded    927 shell pairs
 There are      4709 function pairs (      5223 Cartesian)
 Smallest overlap matrix eigenvalue = 1.25E-03
 Guess MOs from SCF MO coefficient file
 Reading MOs from coefficient file
 Reading MOs from coefficient file
 An unrestricted hybrid HF-DFT SCF calculation will be
 performed using Geometric Direct Minimization
 Exchange:     0.2000 Hartree-Fock + 0.0800 Slater + 0.7200 B88
 Correlation:  0.1900 VWN1RPA + 0.8100 LYP
 Using Euler-Maclaurin-Lebedev (128,302) quadrature formula
 Dispersion:   Grimme D3
 SCF converges when RMS gradient is below 1.0E-08
 Maximum number of minimization steps = 600
 Geometry optimization detected.  Setting ReadMinima to 0
 Setting SaveMinima to 0
 using 16 threads for integral computing 
 -------------------------------------------------------
 OpenMP BLAS3 based DFT computing Module                
 Release: version 1.0, May 2013, Q-Chem Inc. Pittsburgh 
 -------------------------------------------------------
 
   ------------------- Entering Geometric Direct Minimization ------------------
   GDM:         diagonal hessian shift is      0.000000000000000E+000
   GDM::PreWSS: input subspace size is                  1
   GDM::PreWSS: working subspace size set to            1
   GDM::PrEWSS: # of linearly dependent vectors =            0
   GDM::PrEWSS: Max dev from orthonormality =   2.220446049250313E-016
   GDM::BFGS:   lowest Hinv e-value     1.00000000000000     
   GDM::BFGS:   highest Hinv e-value    1.00000000000000     
   GDM::      : max scaling in EWCs is          1.97783017927961     
   GDM::      : max rotation in step is       -5.764589406208603E-003
   GDM::        grad.step =  -8.063382974159442E-004
   ------- Leaving GDM -- hopefully with a step in the right direction! --------
 
 ---------------------------------------
  Cycle       Energy        RMS Gradient
 ---------------------------------------
    1   -1242.4744552250      4.86E-03  Gap = 3.11 eV  Normal BFGS step
 
   ------------------- Entering Geometric Direct Minimization ------------------
   GDM::trust : actual energy change is       -4.153422737545043E-004
   GDM::trust : predicted energy change was   -1.209507446123916E-003
   GDM::trust : updated trust radius is        0.330000000000000     
   GDM:         diagonal hessian shift is      0.000000000000000E+000
   GDM::PreWSS: input subspace size is                  2
   GDM::PreWSS: working subspace size set to            2
   GDM::PrEWSS: # of linearly dependent vectors =            0
   GDM::PrEWSS: Max dev from orthonormality =   9.366661092580220E-014
   GDM::BFGS:   lowest Hinv e-value    0.732579008445792     
   GDM::BFGS:   highest Hinv e-value    1.40739856802488     
   GDM::      : max scaling in EWCs is          1.98479735590656     
   GDM::      : max rotation in step is        3.914467407691671E-003
   GDM::        grad.step =  -8.884123583732336E-005
   ------- Leaving GDM -- hopefully with a step in the right direction! --------
 
    2   -1242.4748705673      2.22E-03  Gap = 3.11 eV  Normal BFGS step
 
   ------------------- Entering Geometric Direct Minimization ------------------
   GDM::trust : actual energy change is        4.407151709528989E-005
   GDM::trust : predicted energy change was   -1.332618537559850E-004
   GDM::trust : updated trust radius is        0.108900000000000     
   GDM::search:  On step            1 .  The current bracket is:
       left   : x =  0.0000E+00, e =     -1242.4748705673, g = -0.7102E-02
       current: x =  0.1251E-01, e =     -1242.4748264957, g =  0.1418E-01
       right  : x =  0.1000E+04, e =      1000.0000000000, g =  0.1000E+04
       next   : x =  0.4181E-02
   GDM::      : max rotation in step is        1.308249639222238E-003
   ------- Leaving GDM -- hopefully with a step in the right direction! --------
 
    3   -1242.4748264957      3.30E-03  Gap = 3.11 eV  Line search: overstep
 
   ------------------- Entering Geometric Direct Minimization ------------------
   GDM::trust : actual energy change is       -1.487044778514246E-005
   GDM::trust : predicted energy change was   -1.332618537559850E-004
   GDM::trust : updated trust radius is        0.108900000000000     
   GDM:         diagonal hessian shift is      0.000000000000000E+000
   GDM::PreWSS: input subspace size is                  3
   GDM::PreWSS: working subspace size set to            3
   GDM::PrEWSS: # of linearly dependent vectors =            0
   GDM::PrEWSS: Max dev from orthonormality =   2.104684482251429E-010
   GDM::BFGS:   lowest Hinv e-value    0.256644162600144     
   GDM::BFGS:   highest Hinv e-value    1.46727621858480     
   GDM::      : max scaling in EWCs is          1.97361201852335     
   GDM::      : max rotation in step is        9.368215803894454E-004
   GDM::        grad.step =  -1.832874801158357E-005
   ------- Leaving GDM -- hopefully with a step in the right direction! --------
 
    4   -1242.4748854377      9.20E-04  Gap = 3.11 eV  Normal BFGS step
 
   ------------------- Entering Geometric Direct Minimization ------------------
   GDM::trust : actual energy change is        2.726685579546029E-006
   GDM::trust : predicted energy change was   -2.749312201737535E-005
   GDM::trust : updated trust radius is        0.108900000000000     
   GDM::search:  On step            1 .  The current bracket is:
       left   : x =  0.0000E+00, e =     -1242.4748854377, g = -0.3702E-02
       current: x =  0.4951E-02, e =     -1242.4748827110, g =  0.4801E-02
       right  : x =  0.1000E+04, e =      1000.0000000000, g =  0.1000E+04
       next   : x =  0.2155E-02
   GDM::      : max rotation in step is        4.077514387071436E-004
   ------- Leaving GDM -- hopefully with a step in the right direction! --------
 
    5   -1242.4748827110      8.68E-04  Gap = 3.11 eV  Line search: overstep
 
   ------------------- Entering Geometric Direct Minimization ------------------
   GDM::trust : actual energy change is       -3.987957825302146E-006
   GDM::trust : predicted energy change was   -2.749312201737535E-005
   GDM::trust : updated trust radius is        0.108900000000000     
   GDM:         diagonal hessian shift is      0.000000000000000E+000
   GDM::PreWSS: input subspace size is                  4
   GDM::PreWSS: working subspace size set to            4
   GDM::PrEWSS: # of linearly dependent vectors =            0
   GDM::PrEWSS: Max dev from orthonormality =   2.025421271673045E-010
   GDM::BFGS:   lowest Hinv e-value    0.225226368198687     
   GDM::BFGS:   highest Hinv e-value    1.30936570114303     
   GDM::      : max scaling in EWCs is          1.97905440991725     
   GDM::      : max rotation in step is        5.437013423294474E-004
   GDM::        grad.step =  -1.491271403468483E-006
   ------- Leaving GDM -- hopefully with a step in the right direction! --------
 
    6   -1242.4748894257      3.26E-04  Gap = 3.11 eV  Normal BFGS step
 
   ------------------- Entering Geometric Direct Minimization ------------------
   GDM::trust : actual energy change is       -5.286347004584968E-008
   GDM::trust : predicted energy change was   -2.236907105202725E-006
   GDM::trust : updated trust radius is        0.330000000000000     
   GDM:         diagonal hessian shift is      0.000000000000000E+000
   GDM::PreWSS: input subspace size is                  5
   GDM::PreWSS: working subspace size set to            5
   GDM::PrEWSS: # of linearly dependent vectors =            0
   GDM::PrEWSS: Max dev from orthonormality =   1.131646706897804E-009
   GDM::BFGS:   lowest Hinv e-value    0.223853903779649     
   GDM::BFGS:   highest Hinv e-value    1.49483451920751     
   GDM::      : max scaling in EWCs is          1.97765410539605     
   GDM::      : max rotation in step is        3.000513059338370E-004
   GDM::        grad.step =  -9.838367874813122E-007
   ------- Leaving GDM -- hopefully with a step in the right direction! --------
 
    7   -1242.4748894785      4.61E-04  Gap = 3.11 eV  Normal BFGS step
 
   ------------------- Entering Geometric Direct Minimization ------------------
   GDM::trust : actual energy change is       -4.288046966394177E-007
   GDM::trust : predicted energy change was   -1.475755181221968E-006
   GDM::trust : updated trust radius is        0.330000000000000     
   GDM:         diagonal hessian shift is      0.000000000000000E+000
   GDM::PreWSS: input subspace size is                  6
   GDM::PreWSS: working subspace size set to            6
   GDM::PrEWSS: # of linearly dependent vectors =            1
   GDM::PrEWSS: Max dev from orthonormality =   1.626025553785881E-009
   GDM::BFGS:   lowest Hinv e-value    0.223438966226267     
   GDM::BFGS:   highest Hinv e-value    1.45041760862642     
   GDM::      : max scaling in EWCs is          1.97843001902819     
   GDM::      : max rotation in step is       -4.896554842200267E-005
   GDM::        grad.step =  -5.766315325501688E-008
   ------- Leaving GDM -- hopefully with a step in the right direction! --------
 
    8   -1242.4748899073      3.90E-05  Gap = 3.11 eV  Normal BFGS step
 
   ------------------- Entering Geometric Direct Minimization ------------------
   GDM::trust : actual energy change is       -2.082902028632816E-008
   GDM::trust : predicted energy change was   -8.649472988252531E-008
   GDM::trust : updated trust radius is        0.330000000000000     
   GDM:         diagonal hessian shift is      0.000000000000000E+000
   GDM::PreWSS: input subspace size is                  7
   GDM::PreWSS: working subspace size set to            7
   GDM::PrEWSS: # of linearly dependent vectors =            2
   GDM::PrEWSS: Max dev from orthonormality =   1.706112367702572E-009
   GDM::BFGS:   lowest Hinv e-value    0.223816424318210     
   GDM::BFGS:   highest Hinv e-value    1.32146494868230     
   GDM::      : max scaling in EWCs is          1.97841609176363     
   GDM::      : max rotation in step is        2.055500268664631E-005
   GDM::        grad.step =  -5.405604448418088E-009
   ------- Leaving GDM -- hopefully with a step in the right direction! --------
 
    9   -1242.4748899282      1.35E-05  Gap = 94.45 eV  Normal BFGS step
 
   ------------------- Entering Geometric Direct Minimization ------------------
   GDM::trust : actual energy change is       -2.494743966963142E-009
   GDM::trust : predicted energy change was   -8.108406672627132E-009
   GDM::trust : updated trust radius is        0.330000000000000     
   GDM:         diagonal hessian shift is      0.000000000000000E+000
   GDM::PreWSS: input subspace size is                  8
   GDM::PreWSS: working subspace size set to            8
   GDM::PrEWSS: # of linearly dependent vectors =            3
   GDM::PrEWSS: Max dev from orthonormality =   3.337210419465664E-009
   GDM::BFGS:   lowest Hinv e-value    0.223739208420030     
   GDM::BFGS:   highest Hinv e-value    1.44670253326033     
   GDM::      : max scaling in EWCs is          1.97839043557517     
   GDM::      : max rotation in step is        7.150340464012330E-006
   GDM::        grad.step =  -2.830120592459634E-010
   ------- Leaving GDM -- hopefully with a step in the right direction! --------
 
   10   -1242.4748899306      3.31E-06  Gap = 94.45 eV  Normal BFGS step
 
   ------------------- Entering Geometric Direct Minimization ------------------
   GDM::trust : actual energy change is       -4.092726157978177E-011
   GDM::trust : predicted energy change was   -4.245180888689450E-010
   GDM::trust : updated trust radius is        0.330000000000000     
   GDM:         diagonal hessian shift is      0.000000000000000E+000
   GDM::PreWSS: input subspace size is                  9
   GDM::PreWSS: working subspace size set to            9
   GDM::PrEWSS: # of linearly dependent vectors =            4
   GDM::PrEWSS: Max dev from orthonormality =   1.890027409318790E-009
   GDM::BFGS:   lowest Hinv e-value    0.223825744472019     
   GDM::BFGS:   highest Hinv e-value    1.44485831753515     
   GDM::      : max scaling in EWCs is          1.97839115795647     
   GDM::      : max rotation in step is       -2.880868624710030E-006
   GDM::        grad.step =  -1.230770223690929E-010
   ------- Leaving GDM -- hopefully with a step in the right direction! --------
 
   11   -1242.4748899307      3.73E-06  Gap = 94.45 eV  Normal BFGS step
 
   ------------------- Entering Geometric Direct Minimization ------------------
   GDM::trust : actual energy change is       -4.592948243953288E-011
   GDM::trust : predicted energy change was   -1.846155335536393E-010
   GDM::trust : updated trust radius is        0.330000000000000     
   GDM:         diagonal hessian shift is      0.000000000000000E+000
   GDM::PreWSS: input subspace size is                 10
   GDM::PreWSS: working subspace size set to           10
   GDM::PrEWSS: # of linearly dependent vectors =            5
   GDM::PrEWSS: Max dev from orthonormality =   7.370553369023813E-010
   GDM::BFGS:   lowest Hinv e-value    0.223815039452621     
   GDM::BFGS:   highest Hinv e-value    1.47383553846265     
   GDM::      : max scaling in EWCs is          1.97839231913739     
   GDM::      : max rotation in step is        6.730475861289238E-007
   GDM::        grad.step =  -1.696496293193212E-011
   ------- Leaving GDM -- hopefully with a step in the right direction! --------
 
   12   -1242.4748899307      8.33E-07  Gap = 94.45 eV  Normal BFGS step
 
   ------------------- Entering Geometric Direct Minimization ------------------
   GDM::trust : actual energy change is       -6.821210263296962E-012
   GDM::trust : predicted energy change was   -2.544744439789818E-011
   GDM::trust : updated trust radius is        0.330000000000000     
   GDM:         diagonal hessian shift is      0.000000000000000E+000
   GDM::PreWSS: input subspace size is                 11
   GDM::PreWSS: working subspace size set to           11
   GDM::PrEWSS: # of linearly dependent vectors =            6
   GDM::PrEWSS: Max dev from orthonormality =   8.579185695190006E-010
   GDM::BFGS:   lowest Hinv e-value    0.223812364466694     
   GDM::BFGS:   highest Hinv e-value    1.33625570933830     
   GDM::      : max scaling in EWCs is          1.97839194188151     
   GDM::      : max rotation in step is        5.355877788961204E-007
   GDM::        grad.step =  -3.229732927874066E-012
   ------- Leaving GDM -- hopefully with a step in the right direction! --------
 
   13   -1242.4748899307      2.74E-07  Gap = 94.45 eV  Normal BFGS step
 
   ------------------- Entering Geometric Direct Minimization ------------------
   GDM::trust : actual energy change is        6.821210263296962E-013
   GDM::trust : predicted energy change was   -4.844599391811098E-012
   GDM::trust : updated trust radius is        0.108900000000000     
   GDM::WARNING energy changes are now smaller than effective accuracy.
   GDM::        calculation will continue, but THRESH should be increased
   GDM::        or SCF_CONVERGENCE decreased.
   GDM::        effective_thresh =   3.337210419465664E-009
   GDM:         diagonal hessian shift is      0.000000000000000E+000
   GDM::PreWSS: input subspace size is                 12
   GDM::PreWSS: working subspace size set to           11
   GDM::PrEWSS: # of linearly dependent vectors =            6
   GDM::PrEWSS: Max dev from orthonormality =   2.230165733509148E-009
   GDM::BFGS:   lowest Hinv e-value    0.224115166307072     
   GDM::BFGS:   highest Hinv e-value    1.38155211477135     
   GDM::      : max scaling in EWCs is          1.97839193803874     
   GDM::      : max rotation in step is        8.706585775892654E-008
   GDM::        grad.step =  -4.589448244224886E-014
   ------- Leaving GDM -- hopefully with a step in the right direction! --------
 
   14   -1242.4748899307      4.03E-08  Gap = 94.45 eV  Normal BFGS step
 
   ------------------- Entering Geometric Direct Minimization ------------------
   GDM::trust : actual energy change is       -4.547473508864641E-013
   GDM::trust : predicted energy change was   -6.884172366337330E-014
   GDM::trust : updated trust radius is        0.330000000000000     
   GDM:         diagonal hessian shift is      0.000000000000000E+000
   GDM::PreWSS: input subspace size is                 12
   GDM::PreWSS: working subspace size set to           12
   GDM::PrEWSS: # of linearly dependent vectors =            7
   GDM::PrEWSS: Max dev from orthonormality =   1.215604887366481E-009
   GDM::BFGS:   lowest Hinv e-value    0.224076147749148     
   GDM::BFGS:   highest Hinv e-value    1.35852384883963     
   GDM::      : max scaling in EWCs is          1.97839191716050     
   GDM::      : max rotation in step is        1.478501480858122E-008
   GDM::        grad.step =  -8.750693432617816E-015
   ------- Leaving GDM -- hopefully with a step in the right direction! --------
 
   15   -1242.4748899307      1.85E-08  Gap = 94.45 eV  Normal BFGS step
 
   ------------------- Entering Geometric Direct Minimization ------------------
   GDM::trust : actual energy change is        6.821210263296962E-013
   GDM::trust : predicted energy change was   -1.312604014892672E-014
   GDM::trust : updated trust radius is        0.108900000000000     
   GDM::WARNING energy changes are now smaller than effective accuracy.
   GDM::        calculation will continue, but THRESH should be increased
   GDM::        or SCF_CONVERGENCE decreased.
   GDM::        effective_thresh =   3.337210419465664E-009
   GDM:         diagonal hessian shift is      0.000000000000000E+000
   GDM::PreWSS: input subspace size is                 13
   GDM::PreWSS: working subspace size set to           11
   GDM::PrEWSS: # of linearly dependent vectors =            7
   GDM::PrEWSS: Max dev from orthonormality =   3.936511706881252E-012
   GDM::BFGS:   lowest Hinv e-value    0.375855832641818     
   GDM::BFGS:   highest Hinv e-value    1.48941801265599     
   GDM::      : max scaling in EWCs is          1.97839192945468     
   GDM::      : max rotation in step is        4.115205826465502E-009
   GDM::        grad.step =  -5.808442949915028E-016
   ------- Leaving GDM -- hopefully with a step in the right direction! --------
 
   16   -1242.4748899307      5.10E-09 Convergence criterion met
 ---------------------------------------
 One-Electron    Energy = -2230.8588446086
 Total Coulomb   Energy =   820.6124629698
 Alpha Exchange  Energy =    -8.1077482360
 Beta  Exchange  Energy =    -8.1077482360
 DFT   Exchange  Energy =   -64.4584511016
 DFT Correlation Energy =    -3.0393911189
 Nuclear Repu.   Energy =   251.4848304005
 Nuclear Attr.   Energy = -3447.8624721310
 Kinetic         Energy =  1217.0036275223
 <S^2> = 0.0000
 SCF time:  CPU 117.88 s  wall 11.96 s
 SCF   energy in the final basis set = -1242.4748899307
 Total energy in the final basis set = -1242.4748899307
 
 --------------------------------------------------------------
 
                    Orbital Energies (a.u.)
 --------------------------------------------------------------
 
 Alpha MOs
 -- Occupied --
-88.872 -88.872 -88.840  -7.951  -7.951  -7.919  -5.914  -5.914
 -5.909  -5.909  -5.909  -5.909  -5.880  -5.879  -5.878  -2.092
 -1.296  -1.288  -1.287  -0.733  -0.727  -0.657  -0.430  -0.428
 -0.333  -0.308  -0.301  -0.301  -0.298  -0.280  -0.272
 -- Virtual --
 -0.145  -0.109  -0.094  -0.087  -0.055  -0.018  -0.006  -0.005
  0.017   0.044   0.048   0.058   0.068   0.069   0.069   0.075
  0.090   0.094   0.107   0.110   0.115   0.126   0.133   0.138
  0.199   0.204   0.208   0.213   0.261   0.280   0.327   0.428
  0.482   0.489   0.503   0.515   0.523   0.537   0.560   0.572
  0.586   0.656   0.656   0.722   0.739   0.742   0.754   0.758
  0.780   0.785   0.789   0.818   0.829   0.830   0.855   0.863
  0.881   0.899   1.165   1.178   2.063   2.067   2.083   2.088
  2.726   2.730   4.131
 
 Beta MOs
 -- Occupied --
-88.872 -88.872 -88.840  -7.951  -7.951  -7.919  -5.914  -5.914
 -5.909  -5.909  -5.909  -5.909  -5.880  -5.879  -5.878  -2.092
 -1.296  -1.288  -1.287  -0.733  -0.727  -0.657  -0.430  -0.428
 -0.333  -0.308  -0.301  -0.301  -0.298  -0.280  -0.272
 -- Virtual --
 -0.145  -0.109  -0.094  -0.087  -0.055  -0.018  -0.006  -0.005
  0.017   0.044   0.048   0.058   0.068   0.069   0.069   0.075
  0.090   0.094   0.107   0.110   0.115   0.126   0.133   0.138
  0.199   0.204   0.208   0.213   0.261   0.280   0.327   0.428
  0.482   0.489   0.503   0.515   0.523   0.537   0.560   0.572
  0.586   0.656   0.656   0.722   0.739   0.742   0.754   0.758
  0.780   0.785   0.789   0.818   0.829   0.830   0.855   0.863
  0.881   0.899   1.165   1.178   2.063   2.067   2.083   2.088
  2.726   2.730   4.131
 --------------------------------------------------------------
 
          Ground-State Mulliken Net Atomic Charges

     Atom                 Charge (a.u.)    Spin (a.u.)
  --------------------------------------------------------
      1 Zr                    0.718018       0.000000
      2 S                    -0.302137       0.000000
      3 S                    -0.302268       0.000000
      4 S                    -0.340810       0.000000
      5 H                     0.113578       0.000000
      6 H                     0.113619       0.000000
  --------------------------------------------------------
  Sum of atomic charges =     0.000000
  Sum of spin   charges =     0.000000

 -----------------------------------------------------------------
                    Cartesian Multipole Moments
 -----------------------------------------------------------------
    Charge (ESU x 10^10)
                 0.0000
    Dipole Moment (Debye)
         X       0.0019      Y       0.6924      Z      -0.0257
       Tot       0.6928
    Quadrupole Moments (Debye-Ang)
        XX     -64.9635     XY       0.0054     YY     -76.9992
        XZ      -0.0001     YZ      -0.0388     ZZ     -62.1189
    Octopole Moments (Debye-Ang^2)
       XXX      -0.1207    XXY     -21.0893    XYY      -0.0242
       YYY       8.8391    XXZ       1.0402    XYZ      -0.0002
       YYZ       0.4196    XZZ      -0.0191    YZZ      -2.6197
       ZZZ       1.2706
    Hexadecapole Moments (Debye-Ang^3)
      XXXX    -840.7651   XXXY       0.0371   XXYY    -317.9480
      XYYY       0.1228   YYYY    -784.9529   XXXZ      -0.0008
      XXYZ       0.3132   XYYZ      -0.0002   YYYZ      -0.0474
      XXZZ    -180.7280   XYZZ       0.0275   YYZZ    -144.8820
      XZZZ       0.0002   YZZZ       0.2342   ZZZZ     -92.7676
 -----------------------------------------------------------------
 Calculating analytic gradient of the SCF energy
 Gradient of SCF Energy
            1           2           3           4           5           6
    1   0.0000449   0.0012449  -0.0013155  -0.0000150  -0.0005045   0.0005451
    2   0.0001627   0.0009485   0.0008232  -0.0027740   0.0003879   0.0004516
    3   0.0002530  -0.0001801  -0.0001786  -0.0001648   0.0001366   0.0001339
 Max gradient component =       2.774E-03
 RMS gradient           =       8.718E-04
 Gradient time:  CPU 24.20 s  wall 5.72 s
 Geometry Optimization Parameters
   NAtoms,    NIC,     NZ,  NCons,   NDum,   NFix, NCnnct, MaxDiis
        6      26       0       0       0       0       0       0

 Cartesian Hessian Update
 Hessian Updated using BFGS Update


** GEOMETRY OPTIMIZATION IN DELOCALIZED INTERNAL COORDINATES **
   Searching for a Minimum

   Optimization Cycle:   2

                       Coordinates (Angstroms)
     ATOM                X               Y               Z
      1  Zr        0.0006441715   -0.0105362128   -0.0133905872
      2  S        -2.1465139611    1.1841296715   -0.0066251270
      3  S         2.1466618333    1.1844858335   -0.0066218774
      4  S         0.0009416010   -2.2330840801   -0.0037417429
      5  H        -3.0425911260    0.1751571217    0.0157904972
      6  H         3.0408574813    0.1741476663    0.0157888373
   Point Group: c1    Number of degrees of freedom:    12


   Energy is  -1242.474889931

 Hessian Updated using BFGS Update

 12 Hessian modes will be used to form the next step
  Hessian Eigenvalues:
     0.001975    0.002000    0.002112    0.089383    0.100892    0.103624
     0.160004    0.174448    0.249840    0.250227    0.260237    0.339155

 Minimum Search - Taking Simple RFO Step
 Searching for Lamda that Minimizes Along All modes
 Value Taken    Lamda =  -0.00066764
 Step Taken.  Stepsize is  0.240545

                             Maximum     Tolerance    Cnvgd?
         Gradient           0.007656      0.000300      NO
         Displacement       0.224793      0.001200      NO
         Energy change     -0.000437      0.000001      NO


 New Cartesian Coordinates Obtained by Inverse Iteration

 Displacement from previous Coordinates is:  0.328505
 ----------------------------------------------------------------
             Standard Nuclear Orientation (Angstroms)
    I     Atom           X                Y                Z
 ----------------------------------------------------------------
    1      Zr      0.0013275679     0.0490070029    -0.0718644906
    2      S      -2.1759235584     1.1766701386     0.0448155701
    3      S       2.1766926320     1.1778485806     0.0446136810
    4      S       0.0023687419    -2.1759480285     0.0454860074
    5      H      -3.0240119732     0.1246598980    -0.0309673842
    6      H       3.0195465898     0.1220624085    -0.0308833836
 ----------------------------------------------------------------
 Nuclear Repulsion Energy =   251.7506300463 hartrees
 There are       31 alpha and       31 beta electrons
 Applying Cartesian multipole field
    Component          Value
    ---------          -----
     (2,0,0)        1.00000E-11
     (0,2,0)        2.00000E-11
     (0,0,2)       -3.00000E-11
 Nucleus-field energy     =     0.0000000146 hartrees
 Requested basis set is non-standard
 There are 32 shells and 98 basis functions
 A cutoff of  1.0D-14 yielded    488 shell pairs
 There are      4717 function pairs (      5225 Cartesian)
 Requested basis set is non-standard
 Compound shells will be simplified
 There are 44 shells and 98 basis functions
 A cutoff of  1.0D-14 yielded    927 shell pairs
 There are      4681 function pairs (      5189 Cartesian)
 Smallest overlap matrix eigenvalue = 1.24E-03
 Guess MOs from SCF MO coefficient file
 Reading MOs from coefficient file
 Reading MOs from coefficient file
 An unrestricted hybrid HF-DFT SCF calculation will be
 performed using Geometric Direct Minimization
 Exchange:     0.2000 Hartree-Fock + 0.0800 Slater + 0.7200 B88
 Correlation:  0.1900 VWN1RPA + 0.8100 LYP
 Using Euler-Maclaurin-Lebedev (128,302) quadrature formula
 Dispersion:   Grimme D3
 SCF converges when RMS gradient is below 1.0E-08
 Maximum number of minimization steps = 600
 Geometry optimization detected.  Setting ReadMinima to 0
 Setting SaveMinima to 0
 using 16 threads for integral computing 
[...]
   GDM::trust : updated trust radius is        0.330000000000000     
   GDM:         diagonal hessian shift is      0.000000000000000E+000
   GDM::PreWSS: input subspace size is                  7
   GDM::PreWSS: working subspace size set to            7
   GDM::PrEWSS: # of linearly dependent vectors =            6
   GDM::PrEWSS: Max dev from orthonormality =   5.067127273328254E-015
   GDM::BFGS:   lowest Hinv e-value    0.223138524682638     
   GDM::BFGS:   highest Hinv e-value    1.53827314402676     
   GDM::      : max scaling in EWCs is          1.88324985659010     
   GDM::      : max rotation in step is        5.766969957185496E-006
   GDM::        grad.step =  -3.120771192060879E-010
   ------- Leaving GDM -- hopefully with a step in the right direction! --------
 
    8   -1242.4790765251      3.53E-06  Gap = 83.11 eV  Normal BFGS step
 
   ------------------- Entering Geometric Direct Minimization ------------------
   GDM::trust : actual energy change is       -2.955857780762017E-012
   GDM::trust : predicted energy change was   -4.681156788091321E-010
   GDM::trust : updated trust radius is        0.330000000000000     
   GDM:         diagonal hessian shift is      0.000000000000000E+000
   GDM::PreWSS: input subspace size is                  8
   GDM::PreWSS: working subspace size set to            8
   GDM::PrEWSS: # of linearly dependent vectors =            7
   GDM::PrEWSS: Max dev from orthonormality =   1.679906214135940E-014
   GDM::BFGS:   lowest Hinv e-value    0.224494373514548     
   GDM::BFGS:   highest Hinv e-value    1.45648737056390     
   GDM::      : max scaling in EWCs is          1.88324688030510     
   GDM::      : max rotation in step is       -3.689102283056538E-006
   GDM::        grad.step =  -1.745937372676093E-010
   ------- Leaving GDM -- hopefully with a step in the right direction! --------
 
    9   -1242.4790765251      4.86E-06  Gap = 83.11 eV  Normal BFGS step
 
   ------------------- Entering Geometric Direct Minimization ------------------
   GDM::trust : actual energy change is       -8.071765478234738E-011
   GDM::trust : predicted energy change was   -2.618906059014139E-010
   GDM::trust : updated trust radius is        0.330000000000000     
   GDM:         diagonal hessian shift is      0.000000000000000E+000
   GDM::PreWSS: input subspace size is                  9
   GDM::PreWSS: working subspace size set to            9
   GDM::PrEWSS: # of linearly dependent vectors =            8
   GDM::PrEWSS: Max dev from orthonormality =   4.673518516629116E-014
   GDM::BFGS:   lowest Hinv e-value    0.224254841338526     
   GDM::BFGS:   highest Hinv e-value    1.52819552765114     
   GDM::      : max scaling in EWCs is          1.88324906752557     
   GDM::      : max rotation in step is       -9.093153971861780E-007
   GDM::        grad.step =  -1.536399582567242E-011
   ------- Leaving GDM -- hopefully with a step in the right direction! --------
 
   10   -1242.4790765252      7.34E-07  Gap = 83.11 eV  Normal BFGS step
 
   ------------------- Entering Geometric Direct Minimization ------------------
   GDM::trust : actual energy change is       -9.094947017729282E-013
   GDM::trust : predicted energy change was   -2.304599373850865E-011
   GDM::trust : updated trust radius is        0.330000000000000     
   GDM:         diagonal hessian shift is      0.000000000000000E+000
   GDM::PreWSS: input subspace size is                 10
   GDM::PreWSS: working subspace size set to           10
   GDM::PrEWSS: # of linearly dependent vectors =            9
   GDM::PrEWSS: Max dev from orthonormality =   1.361584456294196E-013
   GDM::BFGS:   lowest Hinv e-value    0.224522410543181     
   GDM::BFGS:   highest Hinv e-value    1.39199569995791     
   GDM::      : max scaling in EWCs is          1.88325030333180     
   GDM::      : max rotation in step is        3.081301702480249E-007
   GDM::        grad.step =  -5.815372234658850E-012
   ------- Leaving GDM -- hopefully with a step in the right direction! --------
 
   11   -1242.4790765252      4.33E-07  Gap = 83.11 eV  Normal BFGS step
 
   ------------------- Entering Geometric Direct Minimization ------------------
   GDM::trust : actual energy change is       -3.637978807091713E-012
   GDM::trust : predicted energy change was   -8.723058351988277E-012
   GDM::trust : updated trust radius is        0.330000000000000     
   GDM:         diagonal hessian shift is      0.000000000000000E+000
   GDM::PreWSS: input subspace size is                 11
   GDM::PreWSS: working subspace size set to           11
   GDM::PrEWSS: # of linearly dependent vectors =           10
   GDM::PrEWSS: Max dev from orthonormality =   2.970635890053863E-013
   GDM::BFGS:   lowest Hinv e-value    0.224458880259146     
   GDM::BFGS:   highest Hinv e-value    1.42629266261061     
   GDM::      : max scaling in EWCs is          1.88324948058494     
   GDM::      : max rotation in step is       -5.652300387332598E-008
   GDM::        grad.step =  -8.191786283174430E-014
   ------- Leaving GDM -- hopefully with a step in the right direction! --------
 
   12   -1242.4790765252      3.70E-08  Gap = 83.11 eV  Normal BFGS step
 
   ------------------- Entering Geometric Direct Minimization ------------------
   GDM::trust : actual energy change is        2.273736754432321E-013
   GDM::trust : predicted energy change was   -1.228767942476165E-013
   GDM::trust : updated trust radius is        0.108900000000000     
   GDM::WARNING energy changes are now smaller than effective accuracy.
   GDM::        calculation will continue, but THRESH should be increased
   GDM::        or SCF_CONVERGENCE decreased.
   GDM::        effective_thresh =   3.100000000000000E-010
   GDM:         diagonal hessian shift is      0.000000000000000E+000
   GDM::PreWSS: input subspace size is                 12
   GDM::PreWSS: working subspace size set to           12
   GDM::PrEWSS: # of linearly dependent vectors =           11
   GDM::PrEWSS: Max dev from orthonormality =   2.470659093978256E-012
   GDM::BFGS:   lowest Hinv e-value    0.224590850927565     
   GDM::BFGS:   highest Hinv e-value    1.35502146588099     
   GDM::      : max scaling in EWCs is          1.88324951824120     
   GDM::      : max rotation in step is        1.969418236232475E-008
   GDM::        grad.step =  -2.135110562295276E-014
   ------- Leaving GDM -- hopefully with a step in the right direction! --------
 
   13   -1242.4790765252      2.07E-08  Gap = 83.11 eV  Normal BFGS step
 
   ------------------- Entering Geometric Direct Minimization ------------------
   GDM::trust : actual energy change is        3.637978807091713E-012
   GDM::trust : predicted energy change was   -3.202665843442913E-014
   GDM::trust : updated trust radius is        0.108900000000000     
   GDM::WARNING energy changes are now smaller than effective accuracy.
   GDM::        calculation will continue, but THRESH should be increased
   GDM::        or SCF_CONVERGENCE decreased.
   GDM::        effective_thresh =   3.100000000000000E-010
   GDM:         diagonal hessian shift is      0.000000000000000E+000
   GDM::PreWSS: input subspace size is                 13
   GDM::PreWSS: working subspace size set to           12
   GDM::PrEWSS: # of linearly dependent vectors =           10
   GDM::PrEWSS: Max dev from orthonormality =   7.901387877318200E-012
   GDM::BFGS:   lowest Hinv e-value    0.225348002818787     
   GDM::BFGS:   highest Hinv e-value    1.38808208069805     
   GDM::      : max scaling in EWCs is          1.88324952087889     
   GDM::      : max rotation in step is        2.341133056481268E-009
   GDM::        grad.step =  -2.371919134320589E-016
   ------- Leaving GDM -- hopefully with a step in the right direction! --------
 
   14   -1242.4790765252      3.07E-09 Convergence criterion met
 ---------------------------------------
 One-Electron    Energy = -2244.8591022191
 Total Coulomb   Energy =   827.8330779663
 Alpha Exchange  Energy =    -8.1080581701
 Beta  Exchange  Energy =    -8.1080581701
 DFT   Exchange  Energy =   -64.4659329466
 DFT Correlation Energy =    -3.0413624333
 Nuclear Repu.   Energy =   258.2703594477
 Nuclear Attr.   Energy = -3461.9131034359
 Kinetic         Energy =  1217.0540012168
 <S^2> = 0.0000
 SCF time:  CPU 94.82 s  wall 6.97 s
 SCF   energy in the final basis set = -1242.4790765252
 Total energy in the final basis set = -1242.4790765252
 
 --------------------------------------------------------------
 
                    Orbital Energies (a.u.)
 --------------------------------------------------------------
 
 Alpha MOs
 -- Occupied --
-88.865 -88.865 -88.837  -7.944  -7.944  -7.916  -5.907  -5.907
 -5.902  -5.902  -5.901  -5.901  -5.876  -5.876  -5.875  -2.079
 -1.282  -1.278  -1.276  -0.725  -0.720  -0.653  -0.421  -0.420
 -0.322  -0.308  -0.300  -0.290  -0.283  -0.281  -0.270
 -- Virtual --
 -0.129  -0.100  -0.089  -0.079  -0.054  -0.034   0.003   0.005
  0.016   0.041   0.046   0.063   0.064   0.069   0.075   0.077
  0.084   0.098   0.110   0.112   0.116   0.128   0.132   0.170
  0.184   0.211   0.236   0.242   0.249   0.279   0.279   0.440
  0.477   0.482   0.515   0.525   0.528   0.539   0.560   0.576
  0.578   0.608   0.663   0.734   0.740   0.747   0.755   0.767
  0.787   0.791   0.794   0.826   0.830   0.853   0.857   0.866
  0.933   0.958   1.168   1.197   2.074   2.074   2.097   2.105
  2.733   2.733   4.372
 
 Beta MOs
 -- Occupied --
-88.865 -88.865 -88.837  -7.944  -7.944  -7.916  -5.907  -5.907
 -5.902  -5.902  -5.901  -5.901  -5.876  -5.876  -5.875  -2.079
 -1.282  -1.278  -1.276  -0.725  -0.720  -0.653  -0.421  -0.420
 -0.322  -0.308  -0.300  -0.290  -0.283  -0.281  -0.270
 -- Virtual --
 -0.129  -0.100  -0.089  -0.079  -0.054  -0.034   0.003   0.005
  0.016   0.041   0.046   0.063   0.064   0.069   0.075   0.077
  0.084   0.098   0.110   0.112   0.116   0.128   0.132   0.170
  0.184   0.211   0.236   0.242   0.249   0.279   0.279   0.440
  0.477   0.482   0.515   0.525   0.528   0.539   0.560   0.576
  0.578   0.608   0.663   0.734   0.740   0.747   0.755   0.767
  0.787   0.791   0.794   0.826   0.830   0.853   0.857   0.866
  0.933   0.958   1.168   1.197   2.074   2.074   2.097   2.105
  2.733   2.733   4.372
 --------------------------------------------------------------
 
          Ground-State Mulliken Net Atomic Charges

     Atom                 Charge (a.u.)    Spin (a.u.)
  --------------------------------------------------------
      1 Zr                    0.532655       0.000000
      2 S                    -0.241164       0.000000
      3 S                    -0.240740       0.000000
      4 S                    -0.282208       0.000000
      5 H                     0.115666       0.000000
      6 H                     0.115791       0.000000
  --------------------------------------------------------
  Sum of atomic charges =     0.000000
  Sum of spin   charges =     0.000000

 -----------------------------------------------------------------
                    Cartesian Multipole Moments
 -----------------------------------------------------------------
    Charge (ESU x 10^10)
                 0.0000
    Dipole Moment (Debye)
         X      -0.0023      Y       0.4276      Z      -3.5512
       Tot       3.5769
    Quadrupole Moments (Debye-Ang)
        XX     -66.2569     XY       0.0078     YY     -74.5858
        XZ      -0.0040     YZ      -1.9612     ZZ     -56.5529
    Octopole Moments (Debye-Ang^2)
       XXX      -0.3324    XXY     -23.6073    XYY      -0.0558
       YYY      -1.8838    XXZ      26.9207    XYZ      -0.0149
       YYZ      15.6642    XZZ      -0.0436    YZZ      -4.2565
       ZZZ      33.2110
    Hexadecapole Moments (Debye-Ang^3)
      XXXX    -806.1506   XXXY      -0.0125   XXYY    -283.7952
      XYYY       0.1464   YYYY    -700.2298   XXXZ       0.0217
      XXYZ       0.1154   XYYZ      -0.0133   YYYZ     -18.8398
      XXZZ    -171.8909   XYZZ       0.0299   YYZZ    -142.6288
      XZZZ       0.0008   YZZZ     -11.3912   ZZZZ    -136.7330
 -----------------------------------------------------------------
 Calculating analytic gradient of the SCF energy
 Gradient of SCF Energy
            1           2           3           4           5           6
    1  -0.0000067  -0.0000027  -0.0000009  -0.0000006   0.0000064   0.0000045
    2   0.0000067   0.0000207   0.0000099  -0.0000132  -0.0000149  -0.0000092
    3   0.0000016   0.0000311  -0.0000076  -0.0000224   0.0000149  -0.0000176
 Max gradient component =       3.112E-05
 RMS gradient           =       1.340E-05
 Gradient time:  CPU 22.36 s  wall 2.46 s
 Geometry Optimization Parameters
   NAtoms,    NIC,     NZ,  NCons,   NDum,   NFix, NCnnct, MaxDiis
        6      26       0       0       0       0       0       0

 Cartesian Hessian Update
 Hessian Updated using BFGS Update


** GEOMETRY OPTIMIZATION IN DELOCALIZED INTERNAL COORDINATES **
   Searching for a Minimum

   Optimization Cycle:  13

                       Coordinates (Angstroms)
     ATOM                X               Y               Z
      1  Zr        0.0011811577    0.0462390261   -0.7852206146
      2  S        -2.0341915850    1.1618042365    0.0109706207
      3  S         2.0355297564    1.1625393838    0.0113378494
      4  S         0.0018217553   -2.0600770930   -0.1063312376
      5  H        -2.7242395509    0.0828802356    0.4340471150
      6  H         2.7198984666    0.0809142110    0.4363962671
   Point Group: c1    Number of degrees of freedom:    12


   Energy is  -1242.479076525

 Hessian Updated using BFGS Update

 12 Hessian modes will be used to form the next step
  Hessian Eigenvalues:
     0.008202    0.009782    0.049624    0.066461    0.101028    0.103504
     0.150700    0.160033    0.249840    0.250587    0.260318    0.272123

 Minimum Search - Taking Simple RFO Step
 Searching for Lamda that Minimizes Along All modes
 Value Taken    Lamda =   0.00000000
 Step Taken.  Stepsize is  0.001008

                             Maximum     Tolerance    Cnvgd?
         Gradient           0.000020      0.000300     YES
         Displacement       0.000799      0.001200     YES
         Energy change      0.000000      0.000001     YES


                       Distance Matrix (Angstroms)
             Zr(  1)   S (  2)   S (  3)   S (  4)   H (  5)
   S (  2)  2.453803
   S (  3)  2.453407  4.069721
   S (  4)  2.213020  3.813087  3.812489
   H (  5)  2.985946  1.348791  4.898954  3.509371
   H (  6)  2.980767  4.893943  1.348684  3.502333  5.444139
 
 Final energy is   -1242.47907652518     


 ******************************
 **  OPTIMIZATION CONVERGED  **
 ******************************

                       Coordinates (Angstroms)
     ATOM                X               Y               Z
      1  Zr        0.0011811577    0.0462390261   -0.7852206146
      2  S        -2.0341915850    1.1618042365    0.0109706207
      3  S         2.0355297564    1.1625393838    0.0113378494
      4  S         0.0018217553   -2.0600770930   -0.1063312376
      5  H        -2.7242395509    0.0828802356    0.4340471150
      6  H         2.7198984666    0.0809142110    0.4363962671

Z-matrix Print:
$molecule
0 1
Zr
S  1 2.213020
S  1 2.453407 2 109.464393
H  3 1.348684 1 99.101495 2 -11.323045 0
S  1 2.453803 2 109.475763 3 123.197094 0
H  5 1.348791 1 99.350696 2 11.494443 0
$end

 
 --------------------------------------------------------------
 
                    Orbital Energies (a.u.)
 --------------------------------------------------------------
 
 Alpha MOs
 -- Occupied --
-88.865 -88.865 -88.837  -7.944  -7.944  -7.916  -5.907  -5.907
 -5.902  -5.902  -5.901  -5.901  -5.876  -5.876  -5.875  -2.079
 -1.282  -1.278  -1.276  -0.725  -0.720  -0.653  -0.421  -0.420
 -0.322  -0.308  -0.300  -0.290  -0.283  -0.281  -0.270
 -- Virtual --
 -0.129  -0.100  -0.089  -0.079  -0.054  -0.034   0.003   0.005
  0.016   0.041   0.046   0.063   0.064   0.069   0.075   0.077
  0.084   0.098   0.110   0.112   0.116   0.128   0.132   0.170
  0.184   0.211   0.236   0.242   0.249   0.279   0.279   0.440
  0.477   0.482   0.515   0.525   0.528   0.539   0.560   0.576
  0.578   0.608   0.663   0.734   0.740   0.747   0.755   0.767
  0.787   0.791   0.794   0.826   0.830   0.853   0.857   0.866
  0.933   0.958   1.168   1.197   2.074   2.074   2.097   2.105
  2.733   2.733   4.372
 
 Beta MOs
 -- Occupied --
-88.865 -88.865 -88.837  -7.944  -7.944  -7.916  -5.907  -5.907
 -5.902  -5.902  -5.901  -5.901  -5.876  -5.876  -5.875  -2.079
 -1.282  -1.278  -1.276  -0.725  -0.720  -0.653  -0.421  -0.420
 -0.322  -0.308  -0.300  -0.290  -0.283  -0.281  -0.270
 -- Virtual --
 -0.129  -0.100  -0.089  -0.079  -0.054  -0.034   0.003   0.005
  0.016   0.041   0.046   0.063   0.064   0.069   0.075   0.077
  0.084   0.098   0.110   0.112   0.116   0.128   0.132   0.170
  0.184   0.211   0.236   0.242   0.249   0.279   0.279   0.440
  0.477   0.482   0.515   0.525   0.528   0.539   0.560   0.576
  0.578   0.608   0.663   0.734   0.740   0.747   0.755   0.767
  0.787   0.791   0.794   0.826   0.830   0.853   0.857   0.866
  0.933   0.958   1.168   1.197   2.074   2.074   2.097   2.105
  2.733   2.733   4.372
 --------------------------------------------------------------
 
          Ground-State Mulliken Net Atomic Charges

     Atom                 Charge (a.u.)    Spin (a.u.)
  --------------------------------------------------------
      1 Zr                    0.532655       0.000000
      2 S                    -0.241164       0.000000
      3 S                    -0.240740       0.000000
      4 S                    -0.282208       0.000000
      5 H                     0.115666       0.000000
      6 H                     0.115791       0.000000
  --------------------------------------------------------
  Sum of atomic charges =     0.000000
  Sum of spin   charges =     0.000000

 -----------------------------------------------------------------
                    Cartesian Multipole Moments
 -----------------------------------------------------------------
    Charge (ESU x 10^10)
                 0.0000
    Dipole Moment (Debye)
         X      -0.0023      Y       0.4276      Z      -3.5512
       Tot       3.5769
    Quadrupole Moments (Debye-Ang)
        XX     -66.2569     XY       0.0078     YY     -74.5858
        XZ      -0.0040     YZ      -1.9612     ZZ     -56.5529
    Octopole Moments (Debye-Ang^2)
       XXX      -0.3324    XXY     -23.6073    XYY      -0.0558
       YYY      -1.8838    XXZ      26.9207    XYZ      -0.0149
       YYZ      15.6642    XZZ      -0.0436    YZZ      -4.2565
       ZZZ      33.2110
    Hexadecapole Moments (Debye-Ang^3)
      XXXX    -806.1506   XXXY      -0.0125   XXYY    -283.7952
      XYYY       0.1464   YYYY    -700.2298   XXXZ       0.0217
      XXYZ       0.1154   XYYZ      -0.0133   YYYZ     -18.8398
      XXZZ    -171.8909   XYZZ       0.0299   YYZZ    -142.6288
      XZZZ       0.0008   YZZZ     -11.3912   ZZZZ    -136.7330
 -----------------------------------------------------------------
Archival summary:
1\1\hpc1118\OPT\ProcedureUnspecified\BasisUnspecified\r132(\sctiwari\FriJan1019:46:062020FriJan1019:46:062020\0\\#,OPT,ProcedureUnspecified,BasisUnspecified,\\28,1\Zr\S,1,2.21302\S,1,2.45341,2,109.464\H,3,1.34868,1,99.1015,2,-11.323,0\S,1,2.4538,2,109.476,3,123.197,0\H,5,1.34879,1,99.3507,2,11.4944,0\\\@

 Total job time:  209.85s(wall), 2138.18s(cpu) 
 Fri Jan 10 19:46:06 2020

        *************************************************************
        *                                                           *
        *  Thank you very much for using Q-Chem.  Have a nice day.  *
        *                                                           *
        *************************************************************


0 sent ACK to 0 
now end server 0 ... 
cleanup process ... done
